       N       E                     dE             d eps       ncg     rms          rms(c)
DAV:   1     0.499826962985E+03    0.49983E+03   -0.44637E+04  2704   0.135E+03
DAV:   2    -0.105423212749E+03   -0.60525E+03   -0.57801E+03  3456   0.262E+02
DAV:   3    -0.157952702961E+03   -0.52529E+02   -0.52234E+02  3160   0.838E+01
DAV:   4    -0.158589653545E+03   -0.63695E+00   -0.63601E+00  3128   0.101E+01
DAV:   5    -0.158599064615E+03   -0.94111E-02   -0.94081E-02  3280   0.120E+00    0.236E+01
DAV:   6    -0.141831187167E+03    0.16768E+02   -0.92313E+01  3208   0.334E+01    0.791E+00
DAV:   7    -0.141821245434E+03    0.99417E-02   -0.28796E+00  3016   0.626E+00    0.493E+00
DAV:   8    -0.141676027987E+03    0.14522E+00   -0.64426E-01  3104   0.440E+00    0.121E+00
DAV:   9    -0.141644069579E+03    0.31958E-01   -0.14948E-01  3072   0.185E+00    0.618E-01
DAV:  10    -0.141639456399E+03    0.46132E-02   -0.57239E-02  3048   0.887E-01    0.283E-01
DAV:  11    -0.141633850676E+03    0.56057E-02   -0.88910E-03  3176   0.647E-01    0.187E-01
DAV:  12    -0.141630565282E+03    0.32854E-02   -0.40382E-03  3304   0.398E-01    0.145E-01
DAV:  13    -0.141622787735E+03    0.77775E-02   -0.51063E-03  4088   0.784E-01    0.101E-01
DAV:  14    -0.141620599240E+03    0.21885E-02   -0.58155E-03  3152   0.433E-01    0.103E-01
DAV:  15    -0.141613485283E+03    0.71140E-02   -0.11282E-02  4136   0.126E+00    0.189E-01
DAV:  16    -0.141608652408E+03    0.48329E-02   -0.82839E-03  3528   0.114E+00    0.188E-01
DAV:  17    -0.141606454173E+03    0.21982E-02   -0.13555E-02  3232   0.826E-01    0.768E-02
DAV:  18    -0.141604896268E+03    0.15579E-02   -0.46715E-03  3688   0.842E-01    0.994E-02
DAV:  19    -0.141604518101E+03    0.37817E-03   -0.35177E-03  3264   0.486E-01    0.773E-02
DAV:  20    -0.141604375319E+03    0.14278E-03   -0.27244E-03  3160   0.357E-01    0.364E-02
DAV:  21    -0.141604348741E+03    0.26578E-04   -0.58923E-04  3112   0.203E-01    0.266E-02
DAV:  22    -0.141604357067E+03   -0.83263E-05   -0.25767E-04  2960   0.931E-02    0.173E-02
DAV:  23    -0.141604362948E+03   -0.58813E-05   -0.14344E-04  2912   0.639E-02    0.198E-02
DAV:  24    -0.141604359872E+03    0.30759E-05   -0.19656E-05  2136   0.204E-02
   1 F= -.14160436E+03 E0= -.14159943E+03  d E =-.141604E+03
       N       E                     dE             d eps       ncg     rms          rms(c)
DAV:   1    -0.141600325788E+03    0.40372E-02   -0.20710E+00  2704   0.546E+00    0.312E-01
DAV:   2    -0.141605410681E+03   -0.50849E-02   -0.81001E-02  2992   0.900E-01    0.250E-01
DAV:   3    -0.141603988081E+03    0.14226E-02   -0.16755E-03  3144   0.223E-01    0.164E-01
DAV:   4    -0.141602697025E+03    0.12911E-02   -0.37483E-03  3120   0.328E-01    0.492E-02
DAV:   5    -0.141602612538E+03    0.84487E-04   -0.14076E-03  3008   0.154E-01    0.350E-02
DAV:   6    -0.141602438159E+03    0.17438E-03   -0.12564E-04  3200   0.752E-02    0.253E-02
DAV:   7    -0.141602313358E+03    0.12480E-03   -0.93662E-05  3336   0.760E-02    0.151E-02
DAV:   8    -0.141602076285E+03    0.23707E-03   -0.15218E-04  3728   0.147E-01    0.117E-02
DAV:   9    -0.141601990245E+03    0.86040E-04   -0.16005E-04  3056   0.951E-02    0.115E-02
DAV:  10    -0.141601868249E+03    0.12200E-03   -0.94857E-05  3656   0.157E-01    0.109E-02
DAV:  11    -0.141601813348E+03    0.54901E-04   -0.15138E-04  3224   0.123E-01    0.781E-03
DAV:  12    -0.141601766225E+03    0.47123E-04   -0.93937E-05  3480   0.136E-01    0.837E-03
DAV:  13    -0.141601740068E+03    0.26158E-04   -0.10569E-04  3208   0.116E-01    0.634E-03
DAV:  14    -0.141601733606E+03    0.64618E-05   -0.63258E-05  2656   0.747E-02
   2 F= -.14160173E+03 E0= -.14159767E+03  d E =0.262627E-02
       N       E                     dE             d eps       ncg     rms          rms(c)
DAV:   1    -0.141609621311E+03   -0.78812E-02   -0.60840E-01  2688   0.299E+00    0.170E-01
DAV:   2    -0.141611025794E+03   -0.14045E-02   -0.23325E-02  3016   0.501E-01    0.134E-01
DAV:   3    -0.141610595794E+03    0.43000E-03   -0.50526E-04  3128   0.126E-01    0.870E-02
DAV:   4    -0.141610214133E+03    0.38166E-03   -0.99476E-04  3096   0.176E-01    0.249E-02
DAV:   5    -0.141610186564E+03    0.27569E-04   -0.40796E-04  3016   0.870E-02    0.187E-02
DAV:   6    -0.141610137455E+03    0.49109E-04   -0.33675E-05  2800   0.426E-02    0.128E-02
DAV:   7    -0.141610098594E+03    0.38861E-04   -0.26560E-05  2576   0.465E-02    0.779E-03
DAV:   8    -0.141610039239E+03    0.59356E-04   -0.42186E-05  2904   0.781E-02    0.595E-03
DAV:   9    -0.141610011484E+03    0.27755E-04   -0.52059E-05  2952   0.625E-02    0.587E-03
DAV:  10    -0.141609986223E+03    0.25261E-04   -0.17548E-05  2304   0.711E-02    0.517E-03
DAV:  11    -0.141609967865E+03    0.18359E-04   -0.41753E-05  2880   0.828E-02    0.427E-03
DAV:  12    -0.141609955379E+03    0.12485E-04   -0.35237E-05  2560   0.726E-02    0.362E-03
DAV:  13    -0.141609947508E+03    0.78712E-05   -0.26358E-05  2376   0.688E-02
   3 F= -.14160995E+03 E0= -.14160539E+03  d E =-.558764E-02
       N       E                     dE             d eps       ncg     rms          rms(c)
DAV:   1    -0.141611406938E+03   -0.14516E-02   -0.23337E-01  2688   0.190E+00    0.794E-02
DAV:   2    -0.141611842652E+03   -0.43571E-03   -0.54785E-03  3008   0.253E-01    0.466E-02
DAV:   3    -0.141611793548E+03    0.49104E-04   -0.11455E-04  3120   0.561E-02    0.293E-02
DAV:   4    -0.141611770919E+03    0.22629E-04   -0.46009E-05  2904   0.337E-02    0.149E-02
DAV:   5    -0.141611757332E+03    0.13587E-04   -0.27018E-05  2664   0.332E-02    0.547E-03
DAV:   6    -0.141611751984E+03    0.53476E-05   -0.15066E-05  2064   0.238E-02
   4 F= -.14161175E+03 E0= -.14160741E+03  d E =-.180448E-02
       N       E                     dE             d eps       ncg     rms          rms(c)
DAV:   1    -0.141611673946E+03    0.83386E-04   -0.11634E+00  2688   0.422E+00    0.177E-01
DAV:   2    -0.141613831245E+03   -0.21573E-02   -0.27185E-02  2992   0.557E-01    0.102E-01
DAV:   3    -0.141613578073E+03    0.25317E-03   -0.51400E-04  3112   0.117E-01    0.651E-02
DAV:   4    -0.141613443595E+03    0.13448E-03   -0.22188E-04  3104   0.783E-02    0.325E-02
DAV:   5    -0.141613361615E+03    0.81980E-04   -0.14823E-04  3144   0.797E-02    0.122E-02
DAV:   6    -0.141613324695E+03    0.36919E-04   -0.78255E-05  3008   0.549E-02    0.954E-03
DAV:   7    -0.141613304944E+03    0.19751E-04   -0.22678E-05  2432   0.276E-02    0.868E-03
DAV:   8    -0.141613250998E+03    0.53946E-04   -0.27366E-05  2664   0.643E-02    0.641E-03
DAV:   9    -0.141613216354E+03    0.34644E-04   -0.39950E-05  2856   0.594E-02    0.802E-03
DAV:  10    -0.141613177257E+03    0.39097E-04   -0.43252E-05  2936   0.887E-02    0.684E-03
DAV:  11    -0.141613158419E+03    0.18837E-04   -0.53258E-05  3152   0.796E-02    0.685E-03
DAV:  12    -0.141613151725E+03    0.66940E-05   -0.60396E-05  2752   0.655E-02
   5 F= -.14161315E+03 E0= -.14160928E+03  d E =-.320422E-02
       N       E                     dE             d eps       ncg     rms          rms(c)
DAV:   1    -0.141614059741E+03   -0.90132E-03   -0.13175E-01  2768   0.139E+00    0.586E-02
DAV:   2    -0.141614320402E+03   -0.26066E-03   -0.31345E-03  3000   0.196E-01    0.329E-02
DAV:   3    -0.141614300917E+03    0.19485E-04   -0.53822E-05  3008   0.366E-02    0.225E-02
DAV:   4    -0.141614288645E+03    0.12272E-04   -0.46795E-05  2816   0.323E-02    0.944E-03
DAV:   5    -0.141614286539E+03    0.21058E-05   -0.93390E-06  2016   0.202E-02    0.588E-03
DAV:   6    -0.141614284315E+03    0.22234E-05   -0.11183E-05  1904   0.287E-02
   6 F= -.14161428E+03 E0= -.14161053E+03  d E =-.113259E-02
       N       E                     dE             d eps       ncg     rms          rms(c)
DAV:   1    -0.141614135492E+03    0.15105E-03   -0.11818E+00  2688   0.416E+00    0.174E-01
DAV:   2    -0.141616444446E+03   -0.23090E-02   -0.27647E-02  2992   0.578E-01    0.946E-02
DAV:   3    -0.141616286350E+03    0.15810E-03   -0.46604E-04  3128   0.110E-01    0.650E-02
DAV:   4    -0.141616205355E+03    0.80995E-04   -0.36226E-04  3096   0.905E-02    0.282E-02
DAV:   5    -0.141616193535E+03    0.11821E-04   -0.81036E-05  2992   0.506E-02    0.155E-02
DAV:   6    -0.141616187062E+03    0.64727E-05   -0.61999E-05  2976   0.509E-02
   7 F= -.14161619E+03 E0= -.14161279E+03  d E =-.303534E-02
       N       E                     dE             d eps       ncg     rms          rms(c)
DAV:   1    -0.141616146838E+03    0.46696E-04   -0.87687E-02  2696   0.114E+00    0.495E-02
DAV:   2    -0.141616317702E+03   -0.17086E-03   -0.20654E-03  3000   0.157E-01    0.253E-02
DAV:   3    -0.141616303159E+03    0.14543E-04   -0.32771E-05  2808   0.324E-02    0.172E-02
DAV:   4    -0.141616292514E+03    0.10645E-04   -0.25435E-05  2544   0.322E-02    0.725E-03
DAV:   5    -0.141616289024E+03    0.34901E-05   -0.88185E-06  1760   0.234E-02    0.469E-03
DAV:   6    -0.141616284684E+03    0.43408E-05   -0.73766E-06  1832   0.286E-02
   8 F= -.14161628E+03 E0= -.14161298E+03  d E =-.313296E-02
       N       E                     dE             d eps       ncg     rms          rms(c)
DAV:   1    -0.141617378860E+03   -0.10898E-02   -0.25876E-01  2736   0.221E+00    0.661E-02
DAV:   2    -0.141617853387E+03   -0.47453E-03   -0.55146E-03  3008   0.302E-01    0.410E-02
DAV:   3    -0.141617811109E+03    0.42278E-04   -0.57831E-05  2968   0.457E-02    0.287E-02
DAV:   4    -0.141617777644E+03    0.33465E-04   -0.17784E-04  3008   0.853E-02    0.116E-02
DAV:   5    -0.141617780442E+03   -0.27986E-05   -0.66396E-05  2784   0.333E-02    0.145E-02
DAV:   6    -0.141617779052E+03    0.13907E-05   -0.22077E-06  1696   0.643E-03
   9 F= -.14161778E+03 E0= -.14161453E+03  d E =-.149437E-02
       N       E                     dE             d eps       ncg     rms          rms(c)
DAV:   1    -0.141616704223E+03    0.10762E-02   -0.16506E+00  2776   0.558E+00    0.170E-01
DAV:   2    -0.141619749005E+03   -0.30448E-02   -0.35809E-02  3008   0.770E-01    0.104E-01
DAV:   3    -0.141619475444E+03    0.27356E-03   -0.41739E-04  3136   0.123E-01    0.744E-02
DAV:   4    -0.141619254144E+03    0.22130E-03   -0.11814E-03  3088   0.226E-01    0.324E-02
DAV:   5    -0.141619266447E+03   -0.12303E-04   -0.46985E-04  3040   0.913E-02    0.399E-02
DAV:   6    -0.141619255400E+03    0.11047E-04   -0.23379E-05  2136   0.205E-02    0.337E-02
DAV:   7    -0.141619226775E+03    0.28625E-04   -0.35392E-05  2512   0.235E-02    0.241E-02
DAV:   8    -0.141619175181E+03    0.51594E-04   -0.19407E-04  3104   0.786E-02    0.251E-02
DAV:   9    -0.141619169049E+03    0.61324E-05   -0.60675E-05  2632   0.330E-02
  10 F= -.14161917E+03 E0= -.14161605E+03  d E =-.288436E-02
       N       E                     dE             d eps       ncg     rms          rms(c)
DAV:   1    -0.141619677204E+03   -0.50202E-03   -0.24216E-01  2704   0.214E+00    0.711E-02
DAV:   2    -0.141620169884E+03   -0.49268E-03   -0.56960E-03  2944   0.305E-01    0.398E-02
DAV:   3    -0.141620130659E+03    0.39225E-04   -0.10455E-04  3176   0.546E-02    0.270E-02
DAV:   4    -0.141620098020E+03    0.32639E-04   -0.69409E-05  2984   0.478E-02    0.116E-02
DAV:   5    -0.141620085477E+03    0.12543E-04   -0.21527E-05  2240   0.385E-02    0.829E-03
DAV:   6    -0.141620075502E+03    0.99750E-05   -0.19171E-05  2120   0.378E-02
  11 F= -.14162008E+03 E0= -.14161698E+03  d E =-.906453E-03
       N       E                     dE             d eps       ncg     rms          rms(c)
DAV:   1    -0.141619168978E+03    0.91650E-03   -0.87040E-01  2688   0.407E+00    0.134E-01
DAV:   2    -0.141620994397E+03   -0.18254E-02   -0.20607E-02  2936   0.574E-01    0.762E-02
DAV:   3    -0.141620859297E+03    0.13510E-03   -0.25120E-04  3240   0.872E-02    0.512E-02
DAV:   4    -0.141620769796E+03    0.89501E-04   -0.41533E-04  3056   0.116E-01    0.196E-02
DAV:   5    -0.141620770397E+03   -0.60074E-06   -0.13893E-04  3008   0.541E-02    0.168E-02
DAV:   6    -0.141620765561E+03    0.48360E-05   -0.36796E-05  2536   0.272E-02
  12 F= -.14162077E+03 E0= -.14161770E+03  d E =-.159651E-02
       N       E                     dE             d eps       ncg     rms          rms(c)
DAV:   1    -0.141621453990E+03   -0.68359E-03   -0.41672E-01  2704   0.286E+00    0.877E-02
DAV:   2    -0.141622303168E+03   -0.84918E-03   -0.92595E-03  2984   0.396E-01    0.487E-02
DAV:   3    -0.141622254612E+03    0.48556E-04   -0.11371E-04  3184   0.519E-02    0.344E-02
DAV:   4    -0.141622220596E+03    0.34016E-04   -0.15496E-04  3088   0.713E-02    0.137E-02
DAV:   5    -0.141622219364E+03    0.12317E-05   -0.52805E-05  2800   0.354E-02    0.141E-02
DAV:   6    -0.141622215953E+03    0.34110E-05   -0.14735E-05  1704   0.188E-02
  13 F= -.14162222E+03 E0= -.14161923E+03  d E =-.145039E-02
       N       E                     dE             d eps       ncg     rms          rms(c)
DAV:   1    -0.141617204438E+03    0.50149E-02   -0.37535E+00  2704   0.858E+00    0.260E-01
DAV:   2    -0.141624870963E+03   -0.76665E-02   -0.84134E-02  2984   0.120E+00    0.150E-01
DAV:   3    -0.141624379671E+03    0.49129E-03   -0.10940E-03  3192   0.168E-01    0.106E-01
DAV:   4    -0.141623964073E+03    0.41560E-03   -0.13153E-03  3120   0.217E-01    0.440E-02
DAV:   5    -0.141623891967E+03    0.72106E-04   -0.53015E-04  3120   0.133E-01    0.426E-02
DAV:   6    -0.141623839872E+03    0.52095E-04   -0.22541E-04  2864   0.747E-02    0.195E-02
DAV:   7    -0.141623760093E+03    0.79779E-04   -0.42027E-05  2896   0.695E-02    0.105E-02
DAV:   8    -0.141623678412E+03    0.81681E-04   -0.62250E-05  3120   0.887E-02    0.168E-02
DAV:   9    -0.141623563265E+03    0.11515E-03   -0.10094E-04  3472   0.144E-01    0.145E-02
DAV:  10    -0.141623430489E+03    0.13278E-03   -0.16708E-04  3768   0.204E-01    0.231E-02
DAV:  11    -0.141623349325E+03    0.81165E-04   -0.17552E-04  2976   0.126E-01    0.175E-02
DAV:  12    -0.141623279105E+03    0.70220E-04   -0.12320E-04  3624   0.184E-01    0.148E-02
DAV:  13    -0.141623273600E+03    0.55050E-05   -0.20485E-04  2928   0.110E-01    0.113E-02
DAV:  14    -0.141623281073E+03   -0.74738E-05   -0.15904E-04  2856   0.569E-02    0.126E-02
DAV:  15    -0.141623275987E+03    0.50863E-05   -0.38029E-05  2536   0.330E-02
  14 F= -.14162328E+03 E0= -.14162050E+03  d E =-.251043E-02
       N       E                     dE             d eps       ncg     rms          rms(c)
DAV:   1    -0.141623016359E+03    0.26471E-03   -0.25345E-01  2752   0.221E+00    0.675E-02
DAV:   2    -0.141623549795E+03   -0.53344E-03   -0.58472E-03  3000   0.309E-01    0.392E-02
DAV:   3    -0.141623517193E+03    0.32602E-04   -0.72531E-05  3144   0.449E-02    0.282E-02
DAV:   4    -0.141623489808E+03    0.27385E-04   -0.10674E-04  3056   0.623E-02    0.119E-02
DAV:   5    -0.141623487128E+03    0.26800E-05   -0.41804E-05  2600   0.335E-02    0.126E-02
DAV:   6    -0.141623484113E+03    0.30150E-05   -0.12050E-05  1664   0.168E-02
  15 F= -.14162348E+03 E0= -.14162064E+03  d E =-.271855E-02
       N       E                     dE             d eps       ncg     rms          rms(c)
DAV:   1    -0.141624279185E+03   -0.79206E-03   -0.45306E-01  2712   0.297E+00    0.911E-02
DAV:   2    -0.141625115113E+03   -0.83593E-03   -0.95741E-03  2992   0.398E-01    0.510E-02
DAV:   3    -0.141625060394E+03    0.54719E-04   -0.16800E-04  3200   0.627E-02    0.353E-02
DAV:   4    -0.141625019284E+03    0.41109E-04   -0.11781E-04  3056   0.614E-02    0.160E-02
DAV:   5    -0.141625007932E+03    0.11352E-04   -0.46202E-05  2952   0.419E-02    0.129E-02
DAV:   6    -0.141624997369E+03    0.10563E-04   -0.30767E-05  2328   0.390E-02    0.586E-03
DAV:   7    -0.141624991225E+03    0.61437E-05   -0.10797E-05  1792   0.228E-02
  16 F= -.14162499E+03 E0= -.14162224E+03  d E =-.150711E-02
       N       E                     dE             d eps       ncg     rms          rms(c)
DAV:   1    -0.141623867034E+03    0.11303E-02   -0.12561E+00  2696   0.496E+00    0.152E-01
DAV:   2    -0.141626212307E+03   -0.23453E-02   -0.26647E-02  2984   0.664E-01    0.850E-02
DAV:   3    -0.141626058875E+03    0.15343E-03   -0.43198E-04  3240   0.102E-01    0.583E-02
DAV:   4    -0.141625944973E+03    0.11390E-03   -0.34163E-04  3144   0.107E-01    0.255E-02
DAV:   5    -0.141625920109E+03    0.24863E-04   -0.13549E-04  3304   0.661E-02    0.216E-02
DAV:   6    -0.141625893331E+03    0.26778E-04   -0.77744E-05  2784   0.579E-02    0.948E-03
DAV:   7    -0.141625874072E+03    0.19259E-04   -0.19902E-05  2184   0.371E-02    0.921E-03
DAV:   8    -0.141625849103E+03    0.24970E-04   -0.72000E-06  1912   0.406E-02    0.663E-03
DAV:   9    -0.141625797388E+03    0.51715E-04   -0.45372E-05  3064   0.914E-02    0.870E-03
DAV:  10    -0.141625743314E+03    0.54074E-04   -0.60133E-05  3160   0.134E-01    0.116E-02
DAV:  11    -0.141625722563E+03    0.20751E-04   -0.10866E-04  3312   0.114E-01    0.863E-03
DAV:  12    -0.141625725725E+03   -0.31624E-05   -0.92917E-05  2616   0.509E-02
  17 F= -.14162573E+03 E0= -.14162311E+03  d E =-.224161E-02
       N       E                     dE             d eps       ncg     rms          rms(c)
DAV:   1    -0.141626085246E+03   -0.36268E-03   -0.49161E-01  2720   0.311E+00    0.103E-01
DAV:   2    -0.141627121610E+03   -0.10364E-02   -0.11857E-02  2944   0.437E-01    0.564E-02
DAV:   3    -0.141627054094E+03    0.67515E-04   -0.17737E-04  3264   0.645E-02    0.387E-02
DAV:   4    -0.141627009493E+03    0.44601E-04   -0.15813E-04  3040   0.617E-02    0.154E-02
DAV:   5    -0.141627004637E+03    0.48564E-05   -0.44027E-05  2784   0.388E-02    0.101E-02
DAV:   6    -0.141627001756E+03    0.28808E-05   -0.33195E-05  2512   0.402E-02
  18 F= -.14162700E+03 E0= -.14162443E+03  d E =-.127603E-02
       N       E                     dE             d eps       ncg     rms          rms(c)
DAV:   1    -0.141626162675E+03    0.84196E-03   -0.73194E-01  2704   0.379E+00    0.127E-01
DAV:   2    -0.141627705918E+03   -0.15432E-02   -0.17616E-02  2944   0.533E-01    0.679E-02
DAV:   3    -0.141627604645E+03    0.10127E-03   -0.26209E-04  3288   0.803E-02    0.464E-02
DAV:   4    -0.141627534758E+03    0.69887E-04   -0.22064E-04  3048   0.764E-02    0.183E-02
DAV:   5    -0.141627525603E+03    0.91554E-05   -0.68939E-05  3016   0.520E-02    0.122E-02
DAV:   6    -0.141627518897E+03    0.67061E-05   -0.48461E-05  2720   0.545E-02
  19 F= -.14162752E+03 E0= -.14162498E+03  d E =-.179317E-02
       N       E                     dE             d eps       ncg     rms          rms(c)
DAV:   1    -0.141628027951E+03   -0.50235E-03   -0.23696E-01  2760   0.215E+00    0.643E-02
DAV:   2    -0.141628497772E+03   -0.46982E-03   -0.51492E-03  2968   0.291E-01    0.357E-02
DAV:   3    -0.141628469144E+03    0.28628E-04   -0.52459E-05  2888   0.362E-02    0.240E-02
DAV:   4    -0.141628450109E+03    0.19035E-04   -0.93703E-05  2896   0.571E-02    0.755E-03
DAV:   5    -0.141628452206E+03   -0.20970E-05   -0.32414E-05  2536   0.241E-02    0.824E-03
DAV:   6    -0.141628451420E+03    0.78573E-06   -0.26082E-06  1664   0.733E-03
  20 F= -.14162845E+03 E0= -.14162595E+03  d E =-.932523E-03
       N       E                     dE             d eps       ncg     rms          rms(c)
DAV:   1    -0.141626390355E+03    0.20619E-02   -0.21337E+00  2736   0.644E+00    0.189E-01
DAV:   2    -0.141630618962E+03   -0.42286E-02   -0.46401E-02  2960   0.875E-01    0.109E-01
DAV:   3    -0.141630344995E+03    0.27397E-03   -0.46208E-04  3216   0.114E-01    0.744E-02
DAV:   4    -0.141630124552E+03    0.22044E-03   -0.78961E-04  3104   0.191E-01    0.225E-02
DAV:   5    -0.141630144947E+03   -0.20395E-04   -0.40167E-04  3032   0.845E-02    0.271E-02
DAV:   6    -0.141630137602E+03    0.73447E-05   -0.15804E-05  1712   0.180E-02
  21 F= -.14163014E+03 E0= -.14162771E+03  d E =-.261871E-02
       N       E                     dE             d eps       ncg     rms          rms(c)
DAV:   1    -0.141613238113E+03    0.16907E-01   -0.85308E+00  2728   0.129E+01    0.383E-01
DAV:   2    -0.141630312409E+03   -0.17074E-01   -0.18823E-01  2976   0.176E+00    0.222E-01
DAV:   3    -0.141629151910E+03    0.11605E-02   -0.19231E-03  3192   0.238E-01    0.151E-01
DAV:   4    -0.141628184300E+03    0.96761E-03   -0.31485E-03  3192   0.393E-01    0.483E-02
DAV:   5    -0.141628241309E+03   -0.57009E-04   -0.17627E-03  3040   0.184E-01    0.571E-02
DAV:   6    -0.141628200223E+03    0.41086E-04   -0.10922E-04  2856   0.446E-02    0.434E-02
DAV:   7    -0.141628110948E+03    0.89275E-04   -0.91971E-05  2944   0.494E-02    0.269E-02
DAV:   8    -0.141627988117E+03    0.12283E-03   -0.18333E-04  2952   0.931E-02    0.265E-02
DAV:   9    -0.141627917786E+03    0.70330E-04   -0.29560E-04  3648   0.133E-01    0.333E-02
DAV:  10    -0.141627876464E+03    0.41322E-04   -0.33064E-04  3328   0.132E-01    0.488E-02
DAV:  11    -0.141627784365E+03    0.92099E-04   -0.15537E-04  2984   0.956E-02    0.273E-02
DAV:  12    -0.141627658751E+03    0.12561E-03   -0.82916E-05  3416   0.152E-01    0.140E-02
DAV:  13    -0.141627556444E+03    0.10231E-03   -0.37278E-04  3336   0.229E-01    0.278E-02
DAV:  14    -0.141627534810E+03    0.21634E-04   -0.33992E-04  2952   0.125E-01    0.107E-02
DAV:  15    -0.141627543889E+03   -0.90794E-05   -0.24874E-04  2960   0.615E-02    0.236E-02
DAV:  16    -0.141627522547E+03    0.21342E-04   -0.65108E-05  2912   0.554E-02    0.913E-03
DAV:  17    -0.141627518604E+03    0.39430E-05   -0.27519E-05  2400   0.408E-02
  22 F= -.14162752E+03 E0= -.14162522E+03  d E =0.292162E-06
       N       E                     dE             d eps       ncg     rms          rms(c)
DAV:   1    -0.141621242156E+03    0.62804E-02   -0.51774E+00  2784   0.100E+01    0.292E-01
DAV:   2    -0.141631461350E+03   -0.10219E-01   -0.11217E-01  2976   0.136E+00    0.166E-01
DAV:   3    -0.141630820518E+03    0.64083E-03   -0.11307E-03  3224   0.173E-01    0.113E-01
DAV:   4    -0.141630305817E+03    0.51470E-03   -0.19629E-03  3144   0.290E-01    0.352E-02
DAV:   5    -0.141630352368E+03   -0.46551E-04   -0.90267E-04  3008   0.125E-01    0.420E-02
DAV:   6    -0.141630334107E+03    0.18262E-04   -0.43553E-05  2696   0.282E-02    0.316E-02
DAV:   7    -0.141630300643E+03    0.33463E-04   -0.52904E-05  2792   0.293E-02    0.169E-02
DAV:   8    -0.141630265417E+03    0.35226E-04   -0.11159E-04  2968   0.632E-02    0.222E-02
DAV:   9    -0.141630246169E+03    0.19248E-04   -0.13113E-04  2952   0.748E-02    0.205E-02
DAV:  10    -0.141630237775E+03    0.83944E-05   -0.10601E-04  2928   0.615E-02    0.249E-02
DAV:  11    -0.141630219910E+03    0.17865E-04   -0.19239E-05  2056   0.315E-02    0.188E-02
DAV:  12    -0.141630195458E+03    0.24452E-04   -0.12646E-05  1888   0.405E-02    0.108E-02
DAV:  13    -0.141630146335E+03    0.49123E-04   -0.11477E-04  3280   0.153E-01    0.731E-03
DAV:  14    -0.141630140766E+03    0.55692E-05   -0.89053E-05  2856   0.752E-02
  23 F= -.14163014E+03 E0= -.14162774E+03  d E =-.262187E-02
       N       E                     dE             d eps       ncg     rms          rms(c)
DAV:   1    -0.141630337315E+03   -0.19098E-03   -0.34243E-01  2752   0.260E+00    0.822E-02
DAV:   2    -0.141630993900E+03   -0.65658E-03   -0.76026E-03  3016   0.360E-01    0.487E-02
DAV:   3    -0.141630950516E+03    0.43384E-04   -0.16049E-04  3216   0.601E-02    0.343E-02
DAV:   4    -0.141630914558E+03    0.35959E-04   -0.11637E-04  3056   0.581E-02    0.161E-02
DAV:   5    -0.141630898340E+03    0.16218E-04   -0.29765E-05  2456   0.406E-02    0.126E-02
DAV:   6    -0.141630882810E+03    0.15530E-04   -0.26903E-05  2224   0.426E-02    0.719E-03
DAV:   7    -0.141630874571E+03    0.82383E-05   -0.22469E-05  2096   0.305E-02
  24 F= -.14163087E+03 E0= -.14162852E+03  d E =-.733806E-03
       N       E                     dE             d eps       ncg     rms          rms(c)
DAV:   1    -0.141630824566E+03    0.58243E-04   -0.33233E-02  2824   0.811E-01    0.281E-02
DAV:   2    -0.141630887797E+03   -0.63230E-04   -0.85762E-04  3024   0.125E-01    0.157E-02
DAV:   3    -0.141630879549E+03    0.82473E-05   -0.28588E-05  2368   0.257E-02    0.118E-02
DAV:   4    -0.141630867949E+03    0.11601E-04   -0.10678E-05  1776   0.207E-02    0.587E-03
DAV:   5    -0.141630852515E+03    0.15434E-04   -0.77386E-06  1880   0.349E-02    0.724E-03
DAV:   6    -0.141630838480E+03    0.14034E-04   -0.11230E-05  2040   0.418E-02    0.519E-03
DAV:   7    -0.141630822779E+03    0.15702E-04   -0.12403E-05  2104   0.530E-02    0.452E-03
DAV:   8    -0.141630799692E+03    0.23087E-04   -0.16430E-05  2320   0.870E-02    0.459E-03
DAV:   9    -0.141630789826E+03    0.98657E-05   -0.42526E-05  2592   0.685E-02
  25 F= -.14163079E+03 E0= -.14162845E+03  d E =-.649061E-03
       N       E                     dE             d eps       ncg     rms          rms(c)
DAV:   1    -0.141630408939E+03    0.39075E-03   -0.51739E-01  2776   0.323E+00    0.106E-01
DAV:   2    -0.141631501847E+03   -0.10929E-02   -0.12852E-02  2960   0.474E-01    0.624E-02
DAV:   3    -0.141631421297E+03    0.80550E-04   -0.25146E-04  3184   0.801E-02    0.454E-02
DAV:   4    -0.141631359027E+03    0.62270E-04   -0.25263E-04  3024   0.761E-02    0.196E-02
DAV:   5    -0.141631343161E+03    0.15866E-04   -0.50977E-05  2936   0.524E-02    0.164E-02
DAV:   6    -0.141631330352E+03    0.12809E-04   -0.56613E-05  2776   0.597E-02    0.635E-03
DAV:   7    -0.141631329117E+03    0.12345E-05   -0.37227E-05  2488   0.347E-02
  26 F= -.14163133E+03 E0= -.14162902E+03  d E =-.539291E-03
       N       E                     dE             d eps       ncg     rms          rms(c)
DAV:   1    -0.141631322645E+03    0.77068E-05   -0.21469E-04  2880   0.684E-02    0.459E-03
DAV:   2    -0.141631320845E+03    0.18004E-05   -0.83358E-06  1768   0.183E-02    0.254E-03
DAV:   3    -0.141631318525E+03    0.23195E-05   -0.10473E-06  1680   0.147E-02    0.202E-03
DAV:   4    -0.141631312033E+03    0.64918E-05   -0.37156E-06  1864   0.456E-02    0.184E-03
DAV:   5    -0.141631311580E+03    0.45296E-06   -0.10935E-05  1888   0.175E-02    0.205E-03
DAV:   6    -0.141631310860E+03    0.72078E-06   -0.20410E-06  1656   0.131E-02
  27 F= -.14163131E+03 E0= -.14162900E+03  d E =-.521033E-03
       N       E                     dE             d eps       ncg     rms          rms(c)
DAV:   1    -0.141631414924E+03   -0.10334E-03   -0.11863E-01  2888   0.148E+00    0.428E-02
DAV:   2    -0.141631635286E+03   -0.22036E-03   -0.25752E-03  3016   0.204E-01    0.273E-02
DAV:   3    -0.141631612463E+03    0.22823E-04   -0.31140E-05  2488   0.334E-02    0.189E-02
DAV:   4    -0.141631586042E+03    0.26421E-04   -0.42765E-05  2744   0.547E-02    0.616E-03
DAV:   5    -0.141631584549E+03    0.14928E-05   -0.39779E-05  2744   0.313E-02    0.637E-03
DAV:   6    -0.141631583390E+03    0.11596E-05   -0.63244E-06  1680   0.110E-02
  28 F= -.14163158E+03 E0= -.14162928E+03  d E =-.272530E-03
       N       E                     dE             d eps       ncg     rms          rms(c)
DAV:   1    -0.141631529699E+03    0.54851E-04   -0.57412E-02  2904   0.103E+00    0.306E-02
DAV:   2    -0.141631626911E+03   -0.97213E-04   -0.12205E-03  3048   0.145E-01    0.184E-02
DAV:   3    -0.141631612645E+03    0.14267E-04   -0.25743E-05  2376   0.299E-02    0.132E-02
DAV:   4    -0.141631595182E+03    0.17463E-04   -0.78627E-06  1744   0.293E-02    0.711E-03
DAV:   5    -0.141631578313E+03    0.16868E-04   -0.15351E-05  2112   0.429E-02    0.498E-03
DAV:   6    -0.141631565634E+03    0.12679E-04   -0.23485E-05  2296   0.513E-02    0.486E-03
DAV:   7    -0.141631547549E+03    0.18085E-04   -0.12394E-05  2096   0.772E-02    0.922E-03
DAV:   8    -0.141631530946E+03    0.16604E-04   -0.31158E-05  2480   0.781E-02    0.757E-03
DAV:   9    -0.141631522042E+03    0.89031E-05   -0.37299E-05  2536   0.537E-02
  29 F= -.14163152E+03 E0= -.14162923E+03  d E =-.211183E-03
       N       E                     dE             d eps       ncg     rms          rms(c)
DAV:   1    -0.141631540043E+03   -0.90972E-05   -0.12498E-02  2904   0.482E-01    0.156E-02
DAV:   2    -0.141631564997E+03   -0.24954E-04   -0.30995E-04  2976   0.699E-02    0.107E-02
DAV:   3    -0.141631561619E+03    0.33780E-05   -0.33168E-06  1680   0.138E-02    0.721E-03
DAV:   4    -0.141631557656E+03    0.39634E-05   -0.78424E-06  1792   0.262E-02    0.227E-03
DAV:   5    -0.141631557491E+03    0.16489E-06   -0.88724E-06  1680   0.152E-02    0.288E-03
DAV:   6    -0.141631557346E+03    0.14506E-06   -0.15869E-06  1576   0.524E-03
  30 F= -.14163156E+03 E0= -.14162926E+03  d E =-.246486E-03
       N       E                     dE             d eps       ncg     rms          rms(c)
DAV:   1    -0.141631561988E+03   -0.44974E-05   -0.41440E-03  2904   0.277E-01    0.856E-03
DAV:   2    -0.141631568765E+03   -0.67762E-05   -0.88213E-05  2808   0.383E-02    0.496E-03
DAV:   3    -0.141631567498E+03    0.12662E-05   -0.96034E-07  1656   0.854E-03    0.354E-03
DAV:   4    -0.141631565346E+03    0.21523E-05   -0.18508E-06  1728   0.185E-02    0.123E-03
DAV:   5    -0.141631564931E+03    0.41461E-06   -0.38947E-06  1696   0.116E-02    0.158E-03
DAV:   6    -0.141631564650E+03    0.28108E-06   -0.10181E-06  1536   0.520E-03
  31 F= -.14163156E+03 E0= -.14162926E+03  d E =-.253791E-03
       N       E                     dE             d eps       ncg     rms          rms(c)
DAV:   1    -0.141631564064E+03    0.86792E-06   -0.62203E-04  2824   0.108E-01    0.320E-03
DAV:   2    -0.141631564861E+03   -0.79699E-06   -0.13218E-05  1808   0.163E-02    0.193E-03
DAV:   3    -0.141631564579E+03    0.28159E-06   -0.83007E-07  1536   0.520E-03    0.155E-03
DAV:   4    -0.141631564072E+03    0.50658E-06   -0.11230E-07  1576   0.490E-03    0.982E-04
DAV:   5    -0.141631563190E+03    0.88245E-06   -0.39962E-07  1656   0.103E-02    0.926E-04
DAV:   6    -0.141631562786E+03    0.40383E-06   -0.85904E-07  1608   0.775E-03
  32 F= -.14163156E+03 E0= -.14162926E+03  d E =-.251927E-03
       N       E                     dE             d eps       ncg     rms          rms(c)
DAV:   1    -0.141631596932E+03   -0.33742E-04   -0.19889E-02  2752   0.624E-01    0.216E-02
DAV:   2    -0.141631638848E+03   -0.41916E-04   -0.53317E-04  3008   0.950E-02    0.153E-02
DAV:   3    -0.141631632867E+03    0.59813E-05   -0.90002E-06  1720   0.198E-02    0.108E-02
DAV:   4    -0.141631626652E+03    0.62146E-05   -0.16360E-05  2000   0.301E-02    0.408E-03
DAV:   5    -0.141631626152E+03    0.49963E-06   -0.11280E-05  1680   0.193E-02    0.453E-03
DAV:   6    -0.141631625751E+03    0.40165E-06   -0.36391E-06  1664   0.933E-03
  33 F= -.14163163E+03 E0= -.14162933E+03  d E =-.629646E-04
       N       E                     dE             d eps       ncg     rms          rms(c)
DAV:   1    -0.141631624585E+03    0.15677E-05   -0.57792E-05  2592   0.346E-02    0.268E-03
DAV:   2    -0.141631623987E+03    0.59744E-06   -0.28418E-06  1696   0.122E-02    0.146E-03
DAV:   3    -0.141631623368E+03    0.61968E-06   -0.11476E-06  1664   0.104E-02    0.126E-03
DAV:   4    -0.141631623189E+03    0.17804E-06   -0.12066E-06  1608   0.605E-03    0.164E-03
DAV:   5    -0.141631623119E+03    0.70385E-07   -0.20062E-07  1560   0.195E-03    0.146E-03
DAV:   6    -0.141631623044E+03    0.75052E-07   -0.42989E-06  1560   0.698E-03
  34 F= -.14163162E+03 E0= -.14162933E+03  d E =-.602580E-04
       N       E                     dE             d eps       ncg     rms          rms(c)
DAV:   1    -0.141631650821E+03   -0.27702E-04   -0.17641E-02  2784   0.582E-01    0.247E-02
DAV:   2    -0.141631686865E+03   -0.36045E-04   -0.50048E-04  3040   0.948E-02    0.126E-02
DAV:   3    -0.141631683794E+03    0.30716E-05   -0.13580E-05  1752   0.196E-02    0.912E-03
DAV:   4    -0.141631681715E+03    0.20788E-05   -0.12181E-05  1728   0.182E-02    0.312E-03
DAV:   5    -0.141631681589E+03    0.12605E-06   -0.39327E-06  1608   0.104E-02    0.342E-03
DAV:   6    -0.141631681240E+03    0.34892E-06   -0.94049E-07  1608   0.697E-03
  35 F= -.14163168E+03 E0= -.14162939E+03  d E =-.581960E-04
       N       E                     dE             d eps       ncg     rms          rms(c)
DAV:   1    -0.141631658702E+03    0.22887E-04   -0.27461E-02  2736   0.725E-01    0.221E-02
DAV:   2    -0.141631715797E+03   -0.57095E-04   -0.65376E-04  3032   0.105E-01    0.150E-02
DAV:   3    -0.141631710876E+03    0.49209E-05   -0.80832E-06  1784   0.176E-02    0.112E-02
DAV:   4    -0.141631706981E+03    0.38949E-05   -0.36631E-05  2432   0.368E-02    0.647E-03
DAV:   5    -0.141631707418E+03   -0.43635E-06   -0.11993E-05  1624   0.149E-02    0.750E-03
DAV:   6    -0.141631707280E+03    0.13800E-06   -0.14066E-06  1576   0.488E-03
  36 F= -.14163171E+03 E0= -.14162942E+03  d E =-.842355E-04
