 vasp.5.3.5 31Mar14 (build Apr 08 2024 10:12:10) complex                        
  
 executed on             LinuxIFC date 2024.07.29  17:46:21
 running on    8 total cores
 distrk:  each k-point on    8 cores,    1 groups
 distr:  one band on NCORES_PER_BAND=   4 cores,    2 groups


--------------------------------------------------------------------------------------------------------


 INCAR:
 POTCAR:    PAW_PBE O 08Apr2002                   
 POTCAR:    PAW_PBE Mg 13Apr2007                  
 POTCAR:    PAW_PBE Al 04Jan2001                  
 POTCAR:    PAW_PBE O 08Apr2002                   
   VRHFIN =O: s2p4                                                              
   LEXCH  = PE                                                                  
   EATOM  =   432.3788 eV,   31.7789 Ry                                         
                                                                                
   TITEL  = PAW_PBE O 08Apr2002                                                 
   LULTRA =        F    use ultrasoft PP ?                                      
   IUNSCR =        1    unscreen: 0-lin 1-nonlin 2-no                           
   RPACOR =    1.200    partial core radius                                     
   POMASS =   16.000; ZVAL   =    6.000    mass and valenz                      
   RCORE  =    1.520    outmost cutoff radius                                   
   RWIGS  =    1.550; RWIGS  =    0.820    wigner-seitz radius (au A)           
   ENMAX  =  400.000; ENMIN  =  300.000 eV                                      
   ICORE  =        2    local potential                                         
   LCOR   =        T    correct aug charges                                     
   LPAW   =        T    paw PP                                                  
   EAUG   =  605.392                                                            
   DEXC   =    0.000                                                            
   RMAX   =    1.553    core radius for proj-oper                               
   RAUG   =    1.300    factor for augmentation sphere                          
   RDEP   =    1.550    radius for radial grids                                 
   RDEPT  =    1.329    core radius for aug-charge                              
                                                                                
   Atomic configuration                                                         
    4 entries                                                                   
     n  l   j            E        occ.                                          
     1  0  0.50      -514.6923   2.0000                                         
     2  0  0.50       -23.9615   2.0000                                         
     2  1  0.50        -9.0305   4.0000                                         
     3  2  1.50        -9.5241   0.0000                                         
   Description                                                                  
     l       E           TYP  RCUT    TYP  RCUT                                 
     0    -23.9615318     23  1.200                                             
     0     -9.5240782     23  1.200                                             
     1     -9.0304911     23  1.520                                             
     1      8.1634956     23  1.520                                             
     2     -9.5240782      7  1.500                                             
  local pseudopotential read in
  partial core-charges read in
  partial kinetic energy density read in
  kinetic energy density of atom read in
  atomic valenz-charges read in
  non local Contribution for L=           0  read in
    real space projection operators read in
  non local Contribution for L=           0  read in
    real space projection operators read in
  non local Contribution for L=           1  read in
    real space projection operators read in
  non local Contribution for L=           1  read in
    real space projection operators read in
    PAW grid and wavefunctions read in
 
   number of l-projection  operators is LMAX  =           4
   number of lm-projection operators is LMMAX =           8
 
 POTCAR:    PAW_PBE Mg 13Apr2007                  
   VRHFIN =Mg: s2p0                                                             
   LEXCH  = PE                                                                  
   EATOM  =    23.0369 eV,    1.6932 Ry                                         
                                                                                
   TITEL  = PAW_PBE Mg 13Apr2007                                                
   LULTRA =        F    use ultrasoft PP ?                                      
   IUNSCR =        1    unscreen: 0-lin 1-nonlin 2-no                           
   RPACOR =    1.500    partial core radius                                     
   POMASS =   24.305; ZVAL   =    2.000    mass and valenz                      
   RCORE  =    2.000    outmost cutoff radius                                   
   RWIGS  =    2.880; RWIGS  =    1.524    wigner-seitz radius (au A)           
   ENMAX  =  200.000; ENMIN  =  100.000 eV                                      
   RCLOC  =    1.506    cutoff for local pot                                    
   LCOR   =        T    correct aug charges                                     
   LPAW   =        T    paw PP                                                  
   EAUG   =  454.734                                                            
   DEXC   =    0.000                                                            
   RMAX   =    2.045    core radius for proj-oper                               
   RAUG   =    1.300    factor for augmentation sphere                          
   RDEP   =    2.025    radius for radial grids                                 
   RDEPT  =    1.942    core radius for aug-charge                              
                                                                                
   Atomic configuration                                                         
    6 entries                                                                   
     n  l   j            E        occ.                                          
     1  0  0.50     -1259.6230   2.0000                                         
     2  0  0.50       -79.8442   2.0000                                         
     2  1  1.50       -46.6121   6.0000                                         
     3  0  0.50        -4.7055   2.0000                                         
     3  1  0.50        -1.3660   0.0000                                         
     3  2  1.50        -1.3606   0.0000                                         
   Description                                                                  
     l       E           TYP  RCUT    TYP  RCUT                                 
     0     -4.7054661     23  2.000                                             
     0     27.2116520     23  2.000                                             
     1      1.3605826     23  2.000                                             
     1     27.2116520     23  2.000                                             
     2     -1.3605826     23  2.000                                             
  local pseudopotential read in
  partial core-charges read in
  partial kinetic energy density read in
  atomic valenz-charges read in
  non local Contribution for L=           0  read in
    real space projection operators read in
  non local Contribution for L=           0  read in
    real space projection operators read in
  non local Contribution for L=           1  read in
    real space projection operators read in
  non local Contribution for L=           1  read in
    real space projection operators read in
  non local Contribution for L=           2  read in
    real space projection operators read in
    PAW grid and wavefunctions read in
 
   number of l-projection  operators is LMAX  =           5
   number of lm-projection operators is LMMAX =          13
 
 POTCAR:    PAW_PBE Al 04Jan2001                  
   VRHFIN =Al: s2p1                                                             
   LEXCH  = PE                                                                  
   EATOM  =    53.5387 eV,    3.9350 Ry                                         
                                                                                
   TITEL  = PAW_PBE Al 04Jan2001                                                
   LULTRA =        F    use ultrasoft PP ?                                      
   IUNSCR =        1    unscreen: 0-lin 1-nonlin 2-no                           
   RPACOR =    1.500    partial core radius                                     
   POMASS =   26.981; ZVAL   =    3.000    mass and valenz                      
   RCORE  =    1.900    outmost cutoff radius                                   
   RWIGS  =    2.650; RWIGS  =    1.402    wigner-seitz radius (au A)           
   ENMAX  =  240.300; ENMIN  =  180.225 eV                                      
   ICORE  =        2    local potential                                         
   LCOR   =        T    correct aug charges                                     
   LPAW   =        T    paw PP                                                  
   EAUG   =  291.052                                                            
   DEXC   =    0.000                                                            
   RMAX   =    1.939    core radius for proj-oper                               
   RAUG   =    1.300    factor for augmentation sphere                          
   RDEP   =    1.966    radius for radial grids                                 
   RDEPT  =    1.856    core radius for aug-charge                              
                                                                                
   Atomic configuration                                                         
    6 entries                                                                   
     n  l   j            E        occ.                                          
     1  0  0.50     -1511.1048   2.0000                                         
     2  0  0.50      -108.1629   2.0000                                         
     2  1  1.50       -69.6402   6.0000                                         
     3  0  0.50        -7.7528   2.0000                                         
     3  1  1.50        -2.7121   1.0000                                         
     3  2  2.50        -2.7212   0.0000                                         
   Description                                                                  
     l       E           TYP  RCUT    TYP  RCUT                                 
     0     -7.7528455     23  1.900                                             
     0     -3.3096929     23  1.900                                             
     1     -2.7120682     23  1.900                                             
     1     13.6058260     23  1.900                                             
     2     -2.7211652      7  1.900                                             
  local pseudopotential read in
  partial core-charges read in
  partial kinetic energy density read in
  atomic valenz-charges read in
  non local Contribution for L=           0  read in
    real space projection operators read in
  non local Contribution for L=           0  read in
    real space projection operators read in
  non local Contribution for L=           1  read in
    real space projection operators read in
  non local Contribution for L=           1  read in
    real space projection operators read in
    PAW grid and wavefunctions read in
 
   number of l-projection  operators is LMAX  =           4
   number of lm-projection operators is LMMAX =           8
 

 ----------------------------------------------------------------------------- 
|                                                                             |
|  ADVICE TO THIS USER RUNNING 'VASP/VAMP'   (HEAR YOUR MASTER'S VOICE ...):  |
|                                                                             |
|      You have a (more or less) 'large supercell' and for larger cells       |
|      it might be more efficient to use real space projection opertators     |
|      So try LREAL= Auto  in the INCAR   file.                               |
|      Mind: At the moment your POTCAR file does not contain real space       |
|       projectors, and has to be modified,  BUT if you                       |
|      want to do an extremely  accurate calculation you might also keep the  |
|      reciprocal projection scheme          (i.e. LREAL=.FALSE.)             |
|                                                                             |
 ----------------------------------------------------------------------------- 

  PAW_PBE O 08Apr2002                   :
 energy of atom  1       EATOM= -432.3788
 kinetic energy error for atom=    0.0208 (will be added to EATOM!!)
  PAW_PBE Mg 13Apr2007                  :
 energy of atom  2       EATOM=  -23.0369
 kinetic energy error for atom=    0.0000 (will be added to EATOM!!)
  PAW_PBE Al 04Jan2001                  :
 energy of atom  3       EATOM=  -53.5387
 kinetic energy error for atom=    0.0002 (will be added to EATOM!!)
 
 
 POSCAR: Layer                                   
  positions in direct lattice
  velocities in cartesian coordinates
 exchange correlation table for  LEXCH =        8
   RHO(1)=    0.500       N(1)  =     2000
   RHO(2)=  100.500       N(2)  =     4000
 


--------------------------------------------------------------------------------------------------------


 ion  position               nearest neighbor table
   1  0.000  0.000  0.244-  21 1.75  14 2.08  14 2.08  14 2.08
   2  0.333  0.667  0.305-  11 2.14  11 2.14  11 2.14  14 2.14  14 2.14  14 2.14
   3  0.000  0.000  0.431-  15 2.14  15 2.14  15 2.14  17 2.14  17 2.14  17 2.14
   4  0.333  0.667  0.494-  12 2.14  12 2.14  12 2.14  15 2.14  15 2.14  15 2.14
   5  0.000  0.000  0.621-  18 2.14  18 2.14  18 2.14  16 2.14  16 2.14  16 2.14
   6  0.333  0.667  0.684-  16 2.14  16 2.14  16 2.14  13 2.14  13 2.14  13 2.14
   7  0.000  0.000  0.808-  24 1.75  19 2.08  19 2.08  19 2.08
   8  0.667  0.333  0.368-  17 2.14  17 2.14  17 2.14  11 2.14  11 2.14  11 2.14
   9  0.667  0.333  0.558-  18 2.14  18 2.14  18 2.14  12 2.14  12 2.14  12 2.14
  10  0.667  0.333  0.748-  13 2.14  13 2.14  13 2.14  19 2.14  19 2.14  19 2.14
  11  0.000  0.000  0.336-   2 2.14   2 2.14   2 2.14   8 2.14   8 2.14   8 2.14  17 3.05  17 3.05
                            17 3.05  14 3.06  14 3.06  14 3.06
  12  0.000  0.000  0.526-   4 2.14   4 2.14   4 2.14   9 2.14   9 2.14   9 2.14  15 3.05  15 3.05
                            15 3.05  18 3.05  18 3.05  18 3.05
  13  0.000  0.000  0.716-  10 2.14  10 2.14  10 2.14   6 2.14   6 2.14   6 2.14  16 3.05  16 3.05
                            16 3.05  19 3.06  19 3.06  19 3.06
  14  0.667  0.333  0.273-   1 2.08   1 2.08   1 2.08   2 2.14   2 2.14   2 2.14  11 3.06  11 3.06
                            11 3.06  21 3.38  21 3.38  21 3.38
  15  0.667  0.333  0.463-   3 2.14   3 2.14   3 2.14   4 2.14   4 2.14   4 2.14  12 3.05  12 3.05
                            12 3.05  17 3.05  17 3.05  17 3.05
  16  0.667  0.333  0.653-   6 2.14   6 2.14   6 2.14   5 2.14   5 2.14   5 2.14  18 3.05  18 3.05
                            18 3.05  13 3.05  13 3.05  13 3.05
  17  0.333  0.667  0.399-   8 2.14   8 2.14   8 2.14   3 2.14   3 2.14   3 2.14  15 3.05  15 3.05
                            15 3.05  11 3.05  11 3.05  11 3.05
  18  0.333  0.667  0.589-   9 2.14   9 2.14   9 2.14   5 2.14   5 2.14   5 2.14  12 3.05  12 3.05
                            12 3.05  16 3.05  16 3.05  16 3.05
  19  0.333  0.667  0.779-   7 2.08   7 2.08   7 2.08  10 2.14  10 2.14  10 2.14  13 3.06  13 3.06
                            13 3.06  24 3.38  24 3.38  24 3.38
  20  0.000  0.000  0.026-  23 2.88  23 2.88  23 2.88  25 2.88  25 2.88  25 2.88
  21  0.000  0.000  0.200-   1 1.75  22 2.85  22 2.85  22 2.85  14 3.38  14 3.38  14 3.38
  22  0.667  0.333  0.143-  21 2.85  21 2.85  21 2.85  23 2.90  23 2.90  23 2.90
  23  0.333  0.667  0.084-  20 2.88  20 2.88  20 2.88  22 2.90  22 2.90  22 2.90
  24  0.000  0.000  0.852-   7 1.75  26 2.85  26 2.85  26 2.85  19 3.38  19 3.38  19 3.38
  25  0.667  0.333  0.968-  20 2.88  20 2.88  20 2.88  26 2.90  26 2.90  26 2.90
  26  0.333  0.667  0.909-  24 2.85  24 2.85  24 2.85  25 2.90  25 2.90  25 2.90
 
  LATTYP: Found a hexagonal cell.
 ALAT       =     3.0027496481
 C/A-ratio  =    13.2208302758
  
  Lattice vectors:
  
 A1 = (   2.6004576727,  -1.5013744842,   0.0000000000)
 A2 = (   0.0000000000,   3.0027489684,   0.0000000000)
 A3 = (   0.0000000000,  -0.0000000000,  39.6988434586)


Analysis of symmetry for initial positions (statically):
=====================================================================
 Subroutine PRICEL returns:
 Original cell was already a primitive cell.
 

 Routine SETGRP: Setting up the symmetry group for a 
 hexagonal supercell.


 Subroutine GETGRP returns: Found  6 space group operations
 (whereof  6 operations were pure point group operations)
 out of a pool of 24 trial point group operations.


The static configuration has the point symmetry C_3v.


Analysis of symmetry for dynamics (positions and initial velocities):
=====================================================================
 Subroutine PRICEL returns:
 Original cell was already a primitive cell.
 

 Routine SETGRP: Setting up the symmetry group for a 
 hexagonal supercell.


 Subroutine GETGRP returns: Found  6 space group operations
 (whereof  6 operations were pure point group operations)
 out of a pool of 24 trial point group operations.


The dynamic configuration has the point symmetry C_3v.


Analysis of constrained symmetry for selective dynamics:
=====================================================================
 Subroutine PRICEL returns:
 Original cell was already a primitive cell.
 

 Routine SETGRP: Setting up the symmetry group for a 
 hexagonal supercell.


 Subroutine GETGRP returns: Found  6 space group operations
 (whereof  6 operations were pure point group operations)
 out of a pool of 24 trial point group operations.


The constrained configuration has the point symmetry C_3v.
 
 
 KPOINTS: K-Spacing Value to Generate K-Mesh: 0.02

Automatic generation of k-mesh.
Space group operators:
 irot       det(A)        alpha          n_x          n_y          n_z        tau_x        tau_y        tau_z
    1     1.000000     0.000000     1.000000     0.000000     0.000000     0.000000     0.000000     0.000000
    2     1.000000   120.000000    -0.000000    -0.000000    -1.000000     0.000000     0.000000     0.000000
    3     1.000000   120.000000     0.000000    -0.000000     1.000000     0.000000     0.000000     0.000000
    4    -1.000000   180.000000    -0.866025     0.500000     0.000000     0.000000     0.000000     0.000000
    5    -1.000000   180.000000     0.000000     1.000000     0.000000     0.000000     0.000000     0.000000
    6    -1.000000   180.000000    -0.866025    -0.500000     0.000000     0.000000     0.000000     0.000000
 
 Subroutine IBZKPT returns following result:
 ===========================================
 
 Found     21 irreducible k-points:
 
 Following reciprocal coordinates:
            Coordinates               Weight
  0.000000  0.000000  0.000000      1.000000
  0.076923  0.000000  0.000000      6.000000
  0.153846  0.000000 -0.000000      6.000000
  0.230769  0.000000 -0.000000      6.000000
  0.307692  0.000000 -0.000000      6.000000
  0.384615  0.000000  0.000000      6.000000
  0.461538  0.000000 -0.000000      6.000000
  0.076923  0.076923 -0.000000      6.000000
  0.153846  0.076923 -0.000000     12.000000
  0.230769  0.076923 -0.000000     12.000000
  0.307692  0.076923 -0.000000     12.000000
  0.384615  0.076923 -0.000000     12.000000
  0.461538  0.076923 -0.000000      6.000000
  0.153846  0.153846 -0.000000      6.000000
  0.230769  0.153846 -0.000000     12.000000
  0.307692  0.153846 -0.000000     12.000000
  0.384615  0.153846 -0.000000     12.000000
  0.230769  0.230769 -0.000000      6.000000
  0.307692  0.230769 -0.000000     12.000000
  0.384615  0.230769 -0.000000      6.000000
  0.307692  0.307692 -0.000000      6.000000
 
 Following cartesian coordinates:
            Coordinates               Weight
  0.000000  0.000000  0.000000      1.000000
  0.029581  0.000000 -0.000000      6.000000
  0.059161  0.000000 -0.000000      6.000000
  0.088742  0.000000 -0.000000      6.000000
  0.118322  0.000000 -0.000000      6.000000
  0.147903  0.000000 -0.000000      6.000000
  0.177484  0.000000 -0.000000      6.000000
  0.044371  0.025618 -0.000000      6.000000
  0.073951  0.025618 -0.000000     12.000000
  0.103532  0.025618 -0.000000     12.000000
  0.133113  0.025618 -0.000000     12.000000
  0.162693  0.025618 -0.000000     12.000000
  0.192274  0.025618 -0.000000      6.000000
  0.088742  0.051235 -0.000000      6.000000
  0.118322  0.051235 -0.000000     12.000000
  0.147903  0.051235 -0.000000     12.000000
  0.177484  0.051235 -0.000000     12.000000
  0.133113  0.076853 -0.000000      6.000000
  0.162693  0.076853 -0.000000     12.000000
  0.192274  0.076853 -0.000000      6.000000
  0.177484  0.102470 -0.000000      6.000000
 


--------------------------------------------------------------------------------------------------------




 Dimension of arrays:
   k-points           NKPTS =     21   k-points in BZ     NKDIM =     21   number of bands    NBANDS=     64
   number of dos      NEDOS =    301   number of ions     NIONS =     26
   non local maximal  LDIM  =      5   non local SUM 2l+1 LMDIM =     13
   total plane-waves  NPLWV = 172800
   max r-space proj   IRMAX =      1   max aug-charges    IRDMAX= 189617
   dimension x,y,z NGX =    24 NGY =   24 NGZ =  300
   dimension x,y,z NGXF=    48 NGYF=   48 NGZF=  600
   support grid    NGXF=    96 NGYF=   96 NGZF= 1200
   ions per type =              10   9   7
 NGX,Y,Z   is equivalent  to a cutoff of  13.29, 13.29, 12.56 a.u.
 NGXF,Y,Z  is equivalent  to a cutoff of  26.57, 26.57, 25.13 a.u.


 I would recommend the setting:
   dimension x,y,z NGX =    22 NGY =   22 NGZ =  295
 SYSTEM =  unknown system                          
 POSCAR =  Layer                                   

 Startparameter for this run:
   NWRITE =      2    write-flag & timer
   PREC   = accura    normal or accurate (medium, high low for compatibility)
   ISTART =      0    job   : 0-new  1-cont  2-samecut
   ICHARG =      2    charge: 1-file 2-atom 10-const
   ISPIN  =      1    spin polarized calculation?
   LNONCOLLINEAR =      F non collinear calculations
   LSORBIT =      F    spin-orbit coupling
   INIWAV =      1    electr: 0-lowe 1-rand  2-diag
   LASPH  =      F    aspherical Exc in radial PAW
   METAGGA=      F    non-selfconsistent MetaGGA calc.

 Electronic Relaxation 1
   ENCUT  =  520.0 eV  38.22 Ry    6.18 a.u.   5.58  5.58 73.81*2*pi/ulx,y,z
   ENINI  =  520.0     initial cutoff
   ENAUG  =  605.4 eV  augmentation charge cutoff
   NELM   =    100;   NELMIN=  6; NELMDL=  0     # of ELM steps 
   EDIFF  = 0.1E-04   stopping-criterion for ELM
   LREAL  =      F    real-space projection
   NLSPLINE    = F    spline interpolate recip. space projectors
   LCOMPAT=      F    compatible to vasp.4.4
   GGA_COMPAT  = T    GGA compatible to vasp.4.4-vasp.4.6
   LMAXPAW     = -100 max onsite density
   LMAXMIX     =    2 max onsite mixed and CHGCAR
   VOSKOWN=      0    Vosko Wilk Nusair interpolation
   ROPT   =    0.00000   0.00000   0.00000
 Ionic relaxation
   EDIFFG = -.2E-01   stopping-criterion for IOM
   NSW    =    500    number of steps for IOM
   NBLOCK =      1;   KBLOCK =    500    inner block; outer block 
   IBRION =      2    ionic relax: 0-MD 1-quasi-New 2-CG
   NFREE  =      1    steps in history (QN), initial steepest desc. (CG)
   ISIF   =      2    stress and relaxation
   IWAVPR =     11    prediction:  0-non 1-charg 2-wave 3-comb
   ISYM   =      2    0-nonsym 1-usesym 2-fastsym
   LCORR  =      T    Harris-Foulkes like correction to forces

   POTIM  = 0.5000    time-step for ionic-motion
   TEIN   =    0.0    initial temperature
   TEBEG  =    0.0;   TEEND  =   0.0 temperature during run
   SMASS  =  -3.00    Nose mass-parameter (am)
   estimated Nose-frequenzy (Omega)   =  0.10E-29 period in steps =****** mass=  -0.206E-27a.u.
   SCALEE = 1.0000    scale energy and forces
   NPACO  =    256;   APACO  = 16.0  distance and # of slots for P.C.
   PSTRESS=    0.0 pullay stress

  Mass of Ions in am
   POMASS =  16.00 24.30 26.98
  Ionic Valenz
   ZVAL   =   6.00  2.00  3.00
  Atomic Wigner-Seitz radii
   RWIGS  =  -1.00 -1.00 -1.00
  virtual crystal weights 
   VCA    =   1.00  1.00  1.00
   NELECT =      99.0000    total number of electrons
   NUPDOWN=      -1.0000    fix difference up-down

 DOS related values:
   EMIN   =  10.00;   EMAX   =-10.00  energy-range for DOS
   EFERMI =   0.00
   ISMEAR =     0;   SIGMA  =   0.05  broadening in eV -4-tet -1-fermi 0-gaus

 Electronic relaxation 2 (details)
   IALGO  =     38    algorithm
   LDIAG  =      T    sub-space diagonalisation (order eigenvalues)
   LSUBROT=      F    optimize rotation matrix (better conditioning)
   TURBO    =      0    0=normal 1=particle mesh
   IRESTART =      0    0=no restart 2=restart with 2 vectors
   NREBOOT  =      0    no. of reboots
   NMIN     =      0    reboot dimension
   EREF     =   0.00    reference energy to select bands
   IMIX   =      4    mixing-type and parameters
     AMIX     =   0.40;   BMIX     =  1.00
     AMIX_MAG =   1.60;   BMIX_MAG =  1.00
     AMIN     =   0.01
     WC   =   100.;   INIMIX=   1;  MIXPRE=   1;  MAXMIX= -45

 Intra band minimization:
   WEIMIN = 0.0010     energy-eigenvalue tresh-hold
   EBREAK =  0.39E-07  absolut break condition
   DEPER  =   0.30     relativ break condition  

   TIME   =   0.40     timestep for ELM

  volume/ion in A,a.u.               =      11.92        80.46
  Fermi-wavevector in a.u.,A,eV,Ry     =   1.119020  2.114640 17.037280  1.252205
  Thomas-Fermi vector in A             =   2.255655
 
 Write flags
   LWAVE  =      F    write WAVECAR
   LCHARG =      T    write CHGCAR
   LVTOT  =      F    write LOCPOT, total local potential
   LVHAR  =      F    write LOCPOT, Hartree potential only
   LELF   =      F    write electronic localiz. function (ELF)
   LORBIT =      0    0 simple, 1 ext, 2 COOP (PROOUT)


 Dipole corrections
   LMONO  =      F    monopole corrections only (constant potential shift)
   LDIPOL =      F    correct potential (dipole corrections)
   IDIPOL =      0    1-x, 2-y, 3-z, 4-all directions 
   EPSILON=  1.0000000 bulk dielectric constant

 Exchange correlation treatment:
   GGA     =    --    GGA type
   LEXCH   =     8    internal setting for exchange type
   VOSKOWN=      0    Vosko Wilk Nusair interpolation
   LHFCALC =     F    Hartree Fock is set to
   LHFONE  =     F    Hartree Fock one center treatment
   AEXX    =    0.0000 exact exchange contribution

 Linear response parameters
   LEPSILON=     F    determine dielectric tensor
   LRPA    =     F    only Hartree local field effects (RPA)
   LNABLA  =     F    use nabla operator in PAW spheres
   LVEL    =     F    velocity operator in full k-point grid
   LINTERFAST=   F  fast interpolation
   KINTER  =     0    interpolate to denser k-point grid
   CSHIFT  =0.1000    complex shift for real part using Kramers Kronig
   OMEGAMAX=  -1.0    maximum frequency
   DEG_THRESHOLD= 0.2000000E-02 threshold for treating states as degnerate
   RTIME   =    0.100 relaxation time in fs

 Orbital magnetization related:
   ORBITALMAG=     F  switch on orbital magnetization
   LCHIMAG   =     F  perturbation theory with respect to B field
   DQ        =  0.001000  dq finite difference perturbation B field



--------------------------------------------------------------------------------------------------------


 conjugate gradient relaxation of ions
   using selective dynamics as specified on POSCAR
 charge density and potential will be updated during run
 non-spin polarized calculation
 Variant of blocked Davidson
 Davidson routine will perform the subspace rotation
 perform sub-space diagonalisation
    after iterative eigenvector-optimisation
 modified Broyden-mixing scheme, WC =      100.0
 initial mixing is a Kerker type mixing with AMIX =  0.4000 and BMIX =      1.0000
 Hartree-type preconditioning will be used
 using additional bands           14
 reciprocal scheme for non local part
 use partial core corrections
 calculate Harris-corrections to forces 
   (improved forces if not selfconsistent)
 use gradient corrections 
 use of overlap-Matrix (Vanderbilt PP)
 Gauss-broadening in eV      SIGMA  =   0.05


--------------------------------------------------------------------------------------------------------


  energy-cutoff  :      520.00
  volume of cell :      309.99
      direct lattice vectors                 reciprocal lattice vectors
     2.600457673 -1.501374484  0.000000000     0.384547693  0.000000000 -0.000000000
     0.000000000  3.002748968  0.000000000     0.192273847  0.333028172 -0.000000000
     0.000000000 -0.000000000 39.698843459     0.000000000  0.000000000  0.025189651

  length of vectors
     3.002749648  3.002748968 39.698843459     0.384547693  0.384547781  0.025189651


 
 k-points in units of 2pi/SCALE and weight: K-Spacing Value to Generate K-Mesh: 0.02
   0.00000000  0.00000000  0.00000000       0.006
   0.02958059  0.00000000 -0.00000000       0.036
   0.05916118  0.00000000 -0.00000000       0.036
   0.08874178  0.00000000 -0.00000000       0.036
   0.11832237  0.00000000 -0.00000000       0.036
   0.14790296  0.00000000 -0.00000000       0.036
   0.17748355  0.00000000 -0.00000000       0.036
   0.04437089  0.02561755 -0.00000000       0.036
   0.07395148  0.02561755 -0.00000000       0.071
   0.10353207  0.02561755 -0.00000000       0.071
   0.13311266  0.02561755 -0.00000000       0.071
   0.16269325  0.02561755 -0.00000000       0.071
   0.19227385  0.02561755 -0.00000000       0.036
   0.08874178  0.05123510 -0.00000000       0.036
   0.11832237  0.05123510 -0.00000000       0.071
   0.14790296  0.05123510 -0.00000000       0.071
   0.17748355  0.05123510 -0.00000000       0.071
   0.13311266  0.07685266 -0.00000000       0.036
   0.16269325  0.07685266 -0.00000000       0.071
   0.19227385  0.07685266 -0.00000000       0.036
   0.17748355  0.10247021 -0.00000000       0.036
 
 k-points in reciprocal lattice and weights: K-Spacing Value to Generate K-Mesh: 0.02
   0.00000000  0.00000000  0.00000000       0.006
   0.07692308  0.00000000  0.00000000       0.036
   0.15384615  0.00000000 -0.00000000       0.036
   0.23076923  0.00000000 -0.00000000       0.036
   0.30769231  0.00000000 -0.00000000       0.036
   0.38461538  0.00000000  0.00000000       0.036
   0.46153846  0.00000000 -0.00000000       0.036
   0.07692308  0.07692308 -0.00000000       0.036
   0.15384615  0.07692308 -0.00000000       0.071
   0.23076923  0.07692308 -0.00000000       0.071
   0.30769231  0.07692308 -0.00000000       0.071
   0.38461538  0.07692308 -0.00000000       0.071
   0.46153846  0.07692308 -0.00000000       0.036
   0.15384615  0.15384615 -0.00000000       0.036
   0.23076923  0.15384615 -0.00000000       0.071
   0.30769231  0.15384615 -0.00000000       0.071
   0.38461538  0.15384615 -0.00000000       0.071
   0.23076923  0.23076923 -0.00000000       0.036
   0.30769231  0.23076923 -0.00000000       0.071
   0.38461538  0.23076923 -0.00000000       0.036
   0.30769231  0.30769231 -0.00000000       0.036
 
 position of ions in fractional coordinates (direct lattice) 
   0.00000000  0.00000000  0.24371361
   0.33333300  0.66666700  0.30451803
   0.00000000  0.00000000  0.43114715
   0.33333300  0.66666700  0.49439867
   0.00000000  0.00000000  0.62093520
   0.33333300  0.66666700  0.68424864
   0.00000000  0.00000000  0.80834683
   0.66666700  0.33333300  0.36781997
   0.66666700  0.33333300  0.55769314
   0.66666700  0.33333300  0.74754124
   0.00000000  0.00000000  0.33616837
   0.00000000  0.00000000  0.52603165
   0.00000000  0.00000000  0.71591004
   0.66666700  0.33333300  0.27278497
   0.66666700  0.33333300  0.46275829
   0.66666700  0.33333300  0.65259873
   0.33333300  0.66666700  0.39946992
   0.33333300  0.66666700  0.58930724
   0.33333300  0.66666700  0.77928968
   0.00000000  0.00000000  0.02604749
   0.00000000  0.00000000  0.19972246
   0.66666700  0.33333300  0.14277949
   0.33333300  0.66666700  0.08410192
   0.00000000  0.00000000  0.85234617
   0.66666700  0.33333300  0.96798944
   0.33333300  0.66666700  0.90929866
 
 position of ions in cartesian coordinates  (Angst):
   0.00000000 -0.00000000  9.67514848
   0.86681836  1.50137599 12.08901346
   0.00000000 -0.00000000 17.11604329
   0.86681836  1.50137599 19.62705534
   0.00000000 -0.00000000 24.65040941
   0.86681836  1.50137599 27.16387979
   0.00000000 -0.00000000 32.09043415
   1.73363932 -0.00000150 14.60202755
   1.73363932 -0.00000150 22.13977256
   1.73363932 -0.00000150 29.67652248
   0.00000000 -0.00000000 13.34549567
   0.00000000 -0.00000000 20.88284825
   0.00000000 -0.00000000 28.42080055
   1.73363932 -0.00000150 10.82924769
   1.73363932 -0.00000150 18.37096886
   1.73363932 -0.00000150 25.90741464
   0.86681836  1.50137599 15.85849366
   0.86681836  1.50137599 23.39481604
   0.86681836  1.50137599 30.93689894
   0.00000000 -0.00000000  1.03405538
   0.00000000 -0.00000000  7.92875065
   1.73363932 -0.00000150  5.66818076
   0.86681836  1.50137599  3.33874881
   0.00000000 -0.00000000 33.83715736
   1.73363932 -0.00000150 38.42806118
   0.86681836  1.50137599 36.09810526
 


--------------------------------------------------------------------------------------------------------


 k-point  1 :   0.0000 0.0000 0.0000  plane waves:    8439
 k-point  2 :   0.0769 0.0000 0.0000  plane waves:    8443
 k-point  3 :   0.1538 0.0000-0.0000  plane waves:    8419
 k-point  4 :   0.2308 0.0000-0.0000  plane waves:    8394
 k-point  5 :   0.3077 0.0000-0.0000  plane waves:    8346
 k-point  6 :   0.3846 0.0000 0.0000  plane waves:    8304
 k-point  7 :   0.4615 0.0000-0.0000  plane waves:    8306
 k-point  8 :   0.0769 0.0769-0.0000  plane waves:    8429
 k-point  9 :   0.1538 0.0769-0.0000  plane waves:    8410
 k-point 10 :   0.2308 0.0769-0.0000  plane waves:    8361
 k-point 11 :   0.3077 0.0769-0.0000  plane waves:    8342
 k-point 12 :   0.3846 0.0769-0.0000  plane waves:    8309
 k-point 13 :   0.4615 0.0769-0.0000  plane waves:    8288
 k-point 14 :   0.1538 0.1538-0.0000  plane waves:    8375
 k-point 15 :   0.2308 0.1538-0.0000  plane waves:    8342
 k-point 16 :   0.3077 0.1538-0.0000  plane waves:    8330
 k-point 17 :   0.3846 0.1538-0.0000  plane waves:    8292
 k-point 18 :   0.2308 0.2308-0.0000  plane waves:    8346
 k-point 19 :   0.3077 0.2308-0.0000  plane waves:    8305
 k-point 20 :   0.3846 0.2308-0.0000  plane waves:    8326
 k-point 21 :   0.3077 0.3077-0.0000  plane waves:    8326

 maximum and minimum number of plane-waves per node :      2129     2058

 maximum number of plane-waves:      8443
 maximum index in each direction: 
   IXMAX=    5   IYMAX=    5   IZMAX=   73
   IXMIN=   -6   IYMIN=   -5   IZMIN=  -73

 NGX is ok and might be reduce to  24
 NGY is ok and might be reduce to  22
 NGZ is ok and might be reduce to 294

 parallel 3D FFT for wavefunctions:
    minimum data exchange during FFTs selected (reduces bandwidth)
 parallel 3D FFT for charge:
    minimum data exchange during FFTs selected (reduces bandwidth)


 total amount of memory used by VASP on root node   140580. kBytes
========================================================================

   base      :      30000. kBytes
   nonl-proj :      14688. kBytes
   fftplans  :      51726. kBytes
   grid      :      20736. kBytes
   one-center:         56. kBytes
   wavefun   :      23374. kBytes
 
     INWAV:  cpu time    0.00: real time    0.00
 Broyden mixing: mesh for mixing (old mesh)
   NGX = 11   NGY = 11   NGZ =147
  (NGX  = 48   NGY  = 48   NGZ  =600)
  gives a total of  17787 points

 initial charge density was supplied:
 charge density of overlapping atoms calculated
 number of electron      99.0000000 magnetization 
 keeping initial charge density in first step


--------------------------------------------------------------------------------------------------------


 Maximum index for augmentation-charges        22847 (set IRDMAX)


--------------------------------------------------------------------------------------------------------


 First call to EWALD:  gamma=   0.262
 Maximum number of real-space cells 6x 6x 1
 Maximum number of reciprocal cells 1x 1x14

 FEWALD executed in parallel
    FEWALD:  cpu time    0.00: real time    0.00


----------------------------------------- Iteration    1(   1)  ---------------------------------------


    POTLOK:  cpu time    0.10: real time    0.10
    SETDIJ:  cpu time    0.10: real time    0.10
     EDDAV:  cpu time    4.10: real time    4.14
       DOS:  cpu time    0.00: real time    0.00
    --------------------------------------------
      LOOP:  cpu time    4.30: real time    4.34

 eigenvalue-minimisations  :  2704
 total energy-change (2. order) : 0.4998270E+03  (-0.4463735E+04)
 number of electron      99.0000000 magnetization 
 augmentation part       99.0000000 magnetization 

 Free energy of the ion-electron system (eV)
  ---------------------------------------------------
  alpha Z        PSCENC =       136.13904470
  Ewald energy   TEWEN  =      7918.55382584
  -Hartree energ DENC   =    -13110.79983201
  -exchange      EXHF   =         0.00000000
  -V(xc)+E(xc)   XCENC  =      -342.14773747
  PAW double counting   =      4516.65612620    -3844.19644948
  entropy T*S    EENTRO =        -0.00342228
  eigenvalues    EBANDS =       319.94456890
  atomic energy  EATOM  =      4905.68083858
  ---------------------------------------------------
  free energy    TOTEN  =       499.82696298 eV

  energy without entropy =      499.83038526  energy(sigma->0) =      499.82867412


--------------------------------------------------------------------------------------------------------




----------------------------------------- Iteration    1(   2)  ---------------------------------------


     EDDAV:  cpu time    4.79: real time    4.79
       DOS:  cpu time    0.00: real time    0.00
    --------------------------------------------
      LOOP:  cpu time    4.79: real time    4.80

 eigenvalue-minimisations  :  3456
 total energy-change (2. order) :-0.6052502E+03  (-0.5780115E+03)
 number of electron      99.0000000 magnetization 
 augmentation part       99.0000000 magnetization 

 Free energy of the ion-electron system (eV)
  ---------------------------------------------------
  alpha Z        PSCENC =       136.13904470
  Ewald energy   TEWEN  =      7918.55382584
  -Hartree energ DENC   =    -13110.79983201
  -exchange      EXHF   =         0.00000000
  -V(xc)+E(xc)   XCENC  =      -342.14773747
  PAW double counting   =      4516.65612620    -3844.19644948
  entropy T*S    EENTRO =        -0.00463400
  eigenvalues    EBANDS =      -285.30439510
  atomic energy  EATOM  =      4905.68083858
  ---------------------------------------------------
  free energy    TOTEN  =      -105.42321275 eV

  energy without entropy =     -105.41857874  energy(sigma->0) =     -105.42089575


--------------------------------------------------------------------------------------------------------




----------------------------------------- Iteration    1(   3)  ---------------------------------------


     EDDAV:  cpu time    4.56: real time    4.57
       DOS:  cpu time    0.00: real time    0.00
    --------------------------------------------
      LOOP:  cpu time    4.56: real time    4.57

 eigenvalue-minimisations  :  3160
 total energy-change (2. order) :-0.5252949E+02  (-0.5223416E+02)
 number of electron      99.0000000 magnetization 
 augmentation part       99.0000000 magnetization 

 Free energy of the ion-electron system (eV)
  ---------------------------------------------------
  alpha Z        PSCENC =       136.13904470
  Ewald energy   TEWEN  =      7918.55382584
  -Hartree energ DENC   =    -13110.79983201
  -exchange      EXHF   =         0.00000000
  -V(xc)+E(xc)   XCENC  =      -342.14773747
  PAW double counting   =      4516.65612620    -3844.19644948
  entropy T*S    EENTRO =        -0.00479533
  eigenvalues    EBANDS =      -337.83372399
  atomic energy  EATOM  =      4905.68083858
  ---------------------------------------------------
  free energy    TOTEN  =      -157.95270296 eV

  energy without entropy =     -157.94790763  energy(sigma->0) =     -157.95030530


--------------------------------------------------------------------------------------------------------




----------------------------------------- Iteration    1(   4)  ---------------------------------------


     EDDAV:  cpu time    4.48: real time    4.49
       DOS:  cpu time    0.00: real time    0.00
    --------------------------------------------
      LOOP:  cpu time    4.49: real time    4.49

 eigenvalue-minimisations  :  3128
 total energy-change (2. order) :-0.6369506E+00  (-0.6360067E+00)
 number of electron      99.0000000 magnetization 
 augmentation part       99.0000000 magnetization 

 Free energy of the ion-electron system (eV)
  ---------------------------------------------------
  alpha Z        PSCENC =       136.13904470
  Ewald energy   TEWEN  =      7918.55382584
  -Hartree energ DENC   =    -13110.79983201
  -exchange      EXHF   =         0.00000000
  -V(xc)+E(xc)   XCENC  =      -342.14773747
  PAW double counting   =      4516.65612620    -3844.19644948
  entropy T*S    EENTRO =        -0.00488632
  eigenvalues    EBANDS =      -338.47058358
  atomic energy  EATOM  =      4905.68083858
  ---------------------------------------------------
  free energy    TOTEN  =      -158.58965354 eV

  energy without entropy =     -158.58476722  energy(sigma->0) =     -158.58721038


--------------------------------------------------------------------------------------------------------




----------------------------------------- Iteration    1(   5)  ---------------------------------------


     EDDAV:  cpu time    4.58: real time    4.59
       DOS:  cpu time    0.00: real time    0.00
    CHARGE:  cpu time    0.37: real time    0.37
    MIXING:  cpu time    0.00: real time    0.00
    --------------------------------------------
      LOOP:  cpu time    4.95: real time    4.96

 eigenvalue-minimisations  :  3280
 total energy-change (2. order) :-0.9411070E-02  (-0.9408103E-02)
 number of electron      99.0000001 magnetization 
 augmentation part        7.8093625 magnetization 

 Broyden mixing:
  rms(total) = 0.23648E+01    rms(broyden)= 0.23642E+01
  rms(prec ) = 0.24322E+01
  weight for this iteration     100.00

 Free energy of the ion-electron system (eV)
  ---------------------------------------------------
  alpha Z        PSCENC =       136.13904470
  Ewald energy   TEWEN  =      7918.55382584
  -Hartree energ DENC   =    -13110.79983201
  -exchange      EXHF   =         0.00000000
  -V(xc)+E(xc)   XCENC  =      -342.14773747
  PAW double counting   =      4516.65612620    -3844.19644948
  entropy T*S    EENTRO =        -0.00488696
  eigenvalues    EBANDS =      -338.47999401
  atomic energy  EATOM  =      4905.68083858
  ---------------------------------------------------
  free energy    TOTEN  =      -158.59906461 eV

  energy without entropy =     -158.59417765  energy(sigma->0) =     -158.59662113


--------------------------------------------------------------------------------------------------------




----------------------------------------- Iteration    1(   6)  ---------------------------------------


    POTLOK:  cpu time    0.10: real time    0.10
    SETDIJ:  cpu time    0.10: real time    0.10
     EDDAV:  cpu time    4.62: real time    4.62
       DOS:  cpu time    0.00: real time    0.00
    CHARGE:  cpu time    0.36: real time    0.36
    MIXING:  cpu time    0.00: real time    0.00
    --------------------------------------------
      LOOP:  cpu time    5.17: real time    5.18

 eigenvalue-minimisations  :  3208
 total energy-change (2. order) : 0.1676788E+02  (-0.9231341E+01)
 number of electron      99.0000001 magnetization 
 augmentation part        6.3000270 magnetization 

 Broyden mixing:
  rms(total) = 0.79139E+00    rms(broyden)= 0.79032E+00
  rms(prec ) = 0.79965E+00
  weight for this iteration     100.00

 eigenvalues of (default mixing * dielectric matrix)
  average eigenvalue GAMMA=   0.8478
  0.8478

 Free energy of the ion-electron system (eV)
  ---------------------------------------------------
  alpha Z        PSCENC =       136.13904470
  Ewald energy   TEWEN  =      7918.55382584
  -Hartree energ DENC   =    -13311.07237557
  -exchange      EXHF   =         0.00000000
  -V(xc)+E(xc)   XCENC  =      -328.52890329
  PAW double counting   =      5416.22939136    -4747.32371589
  entropy T*S    EENTRO =        -0.00751575
  eigenvalues    EBANDS =      -131.50177713
  atomic energy  EATOM  =      4905.68083858
  ---------------------------------------------------
  free energy    TOTEN  =      -141.83118717 eV

  energy without entropy =     -141.82367141  energy(sigma->0) =     -141.82742929


--------------------------------------------------------------------------------------------------------




----------------------------------------- Iteration    1(   7)  ---------------------------------------


    POTLOK:  cpu time    0.09: real time    0.09
    SETDIJ:  cpu time    0.09: real time    0.09
     EDDAV:  cpu time    4.36: real time    4.37
       DOS:  cpu time    0.00: real time    0.00
    CHARGE:  cpu time    0.36: real time    0.36
    MIXING:  cpu time    0.00: real time    0.00
    --------------------------------------------
      LOOP:  cpu time    4.91: real time    4.92

 eigenvalue-minimisations  :  3016
 total energy-change (2. order) : 0.9941733E-02  (-0.2879558E+00)
 number of electron      99.0000001 magnetization 
 augmentation part        6.3163770 magnetization 

 Broyden mixing:
  rms(total) = 0.49261E+00    rms(broyden)= 0.49258E+00
  rms(prec ) = 0.50087E+00
  weight for this iteration     100.00

 eigenvalues of (default mixing * dielectric matrix)
  average eigenvalue GAMMA=   1.4603
  1.0221  1.8984

 Free energy of the ion-electron system (eV)
  ---------------------------------------------------
  alpha Z        PSCENC =       136.13904470
  Ewald energy   TEWEN  =      7918.55382584
  -Hartree energ DENC   =    -13312.34958217
  -exchange      EXHF   =         0.00000000
  -V(xc)+E(xc)   XCENC  =      -328.13030143
  PAW double counting   =      5775.19411758    -5105.83879426
  entropy T*S    EENTRO =        -0.00711411
  eigenvalues    EBANDS =      -131.06328017
  atomic energy  EATOM  =      4905.68083858
  ---------------------------------------------------
  free energy    TOTEN  =      -141.82124543 eV

  energy without entropy =     -141.81413133  energy(sigma->0) =     -141.81768838


--------------------------------------------------------------------------------------------------------




----------------------------------------- Iteration    1(   8)  ---------------------------------------


    POTLOK:  cpu time    0.09: real time    0.09
    SETDIJ:  cpu time    0.10: real time    0.10
     EDDAV:  cpu time    4.44: real time    4.45
       DOS:  cpu time    0.00: real time    0.00
    CHARGE:  cpu time    0.35: real time    0.35
    MIXING:  cpu time    0.00: real time    0.00
    --------------------------------------------
      LOOP:  cpu time    4.99: real time    5.00

 eigenvalue-minimisations  :  3104
 total energy-change (2. order) : 0.1452174E+00  (-0.6442637E-01)
 number of electron      99.0000001 magnetization 
 augmentation part        6.3823027 magnetization 

 Broyden mixing:
  rms(total) = 0.12126E+00    rms(broyden)= 0.12121E+00
  rms(prec ) = 0.13013E+00
  weight for this iteration     100.00

 eigenvalues of (default mixing * dielectric matrix)
  average eigenvalue GAMMA=   1.3759
  2.4015  0.8858  0.8402

 Free energy of the ion-electron system (eV)
  ---------------------------------------------------
  alpha Z        PSCENC =       136.13904470
  Ewald energy   TEWEN  =      7918.55382584
  -Hartree energ DENC   =    -13319.55210185
  -exchange      EXHF   =         0.00000000
  -V(xc)+E(xc)   XCENC  =      -327.10101366
  PAW double counting   =      6253.63966767    -5583.94864738
  entropy T*S    EENTRO =        -0.00665374
  eigenvalues    EBANDS =      -125.08098814
  atomic energy  EATOM  =      4905.68083858
  ---------------------------------------------------
  free energy    TOTEN  =      -141.67602799 eV

  energy without entropy =     -141.66937424  energy(sigma->0) =     -141.67270112


--------------------------------------------------------------------------------------------------------




----------------------------------------- Iteration    1(   9)  ---------------------------------------


    POTLOK:  cpu time    0.09: real time    0.09
    SETDIJ:  cpu time    0.09: real time    0.09
     EDDAV:  cpu time    4.40: real time    4.40
       DOS:  cpu time    0.00: real time    0.00
    CHARGE:  cpu time    0.35: real time    0.35
    MIXING:  cpu time    0.00: real time    0.00
    --------------------------------------------
      LOOP:  cpu time    4.94: real time    4.94

 eigenvalue-minimisations  :  3072
 total energy-change (2. order) : 0.3195841E-01  (-0.1494849E-01)
 number of electron      99.0000001 magnetization 
 augmentation part        6.3487588 magnetization 

 Broyden mixing:
  rms(total) = 0.61846E-01    rms(broyden)= 0.61839E-01
  rms(prec ) = 0.70940E-01
  weight for this iteration     100.00

 eigenvalues of (default mixing * dielectric matrix)
  average eigenvalue GAMMA=   1.3002
  2.4010  0.9013  0.9013  0.9972

 Free energy of the ion-electron system (eV)
  ---------------------------------------------------
  alpha Z        PSCENC =       136.13904470
  Ewald energy   TEWEN  =      7918.55382584
  -Hartree energ DENC   =    -13327.81440648
  -exchange      EXHF   =         0.00000000
  -V(xc)+E(xc)   XCENC  =      -326.43160557
  PAW double counting   =      6369.94857085    -5700.29316077
  entropy T*S    EENTRO =        -0.00830948
  eigenvalues    EBANDS =      -117.41886726
  atomic energy  EATOM  =      4905.68083858
  ---------------------------------------------------
  free energy    TOTEN  =      -141.64406958 eV

  energy without entropy =     -141.63576010  energy(sigma->0) =     -141.63991484


--------------------------------------------------------------------------------------------------------




----------------------------------------- Iteration    1(  10)  ---------------------------------------


    POTLOK:  cpu time    0.09: real time    0.09
    SETDIJ:  cpu time    0.09: real time    0.09
     EDDAV:  cpu time    4.34: real time    4.34
       DOS:  cpu time    0.00: real time    0.00
    CHARGE:  cpu time    0.36: real time    0.37
    MIXING:  cpu time    0.00: real time    0.00
    --------------------------------------------
      LOOP:  cpu time    4.89: real time    4.90

 eigenvalue-minimisations  :  3048
 total energy-change (2. order) : 0.4613180E-02  (-0.5723903E-02)
 number of electron      99.0000001 magnetization 
 augmentation part        6.3333118 magnetization 

 Broyden mixing:
  rms(total) = 0.28316E-01    rms(broyden)= 0.28290E-01
  rms(prec ) = 0.39007E-01
  weight for this iteration     100.00

 eigenvalues of (default mixing * dielectric matrix)
  average eigenvalue GAMMA=   1.3495
  2.5314  1.6687  0.9720  0.7878  0.7878

 Free energy of the ion-electron system (eV)
  ---------------------------------------------------
  alpha Z        PSCENC =       136.13904470
  Ewald energy   TEWEN  =      7918.55382584
  -Hartree energ DENC   =    -13329.78897265
  -exchange      EXHF   =         0.00000000
  -V(xc)+E(xc)   XCENC  =      -326.33227015
  PAW double counting   =      6357.28601106    -5687.64804625
  entropy T*S    EENTRO =        -0.00890863
  eigenvalues    EBANDS =      -115.52097890
  atomic energy  EATOM  =      4905.68083858
  ---------------------------------------------------
  free energy    TOTEN  =      -141.63945640 eV

  energy without entropy =     -141.63054777  energy(sigma->0) =     -141.63500208


--------------------------------------------------------------------------------------------------------




----------------------------------------- Iteration    1(  11)  ---------------------------------------


    POTLOK:  cpu time    0.10: real time    0.10
    SETDIJ:  cpu time    0.10: real time    0.10
     EDDAV:  cpu time    4.57: real time    4.57
       DOS:  cpu time    0.00: real time    0.00
    CHARGE:  cpu time    0.35: real time    0.35
    MIXING:  cpu time    0.00: real time    0.00
    --------------------------------------------
      LOOP:  cpu time    5.12: real time    5.13

 eigenvalue-minimisations  :  3176
 total energy-change (2. order) : 0.5605723E-02  (-0.8890951E-03)
 number of electron      99.0000001 magnetization 
 augmentation part        6.3298182 magnetization 

 Broyden mixing:
  rms(total) = 0.18681E-01    rms(broyden)= 0.18677E-01
  rms(prec ) = 0.33806E-01
  weight for this iteration     100.00

 eigenvalues of (default mixing * dielectric matrix)
  average eigenvalue GAMMA=   1.3516
  2.5618  2.1388  0.9129  0.9129  0.7916  0.7916

 Free energy of the ion-electron system (eV)
  ---------------------------------------------------
  alpha Z        PSCENC =       136.13904470
  Ewald energy   TEWEN  =      7918.55382584
  -Hartree energ DENC   =    -13332.07425229
  -exchange      EXHF   =         0.00000000
  -V(xc)+E(xc)   XCENC  =      -326.22788240
  PAW double counting   =      6329.64338603    -5660.01874659
  entropy T*S    EENTRO =        -0.00900735
  eigenvalues    EBANDS =      -113.32105720
  atomic energy  EATOM  =      4905.68083858
  ---------------------------------------------------
  free energy    TOTEN  =      -141.63385068 eV

  energy without entropy =     -141.62484333  energy(sigma->0) =     -141.62934700


--------------------------------------------------------------------------------------------------------




----------------------------------------- Iteration    1(  12)  ---------------------------------------


    POTLOK:  cpu time    0.09: real time    0.09
    SETDIJ:  cpu time    0.09: real time    0.09
     EDDAV:  cpu time    4.71: real time    4.72
       DOS:  cpu time    0.00: real time    0.00
    CHARGE:  cpu time    0.36: real time    0.36
    MIXING:  cpu time    0.00: real time    0.00
    --------------------------------------------
      LOOP:  cpu time    5.26: real time    5.27

 eigenvalue-minimisations  :  3304
 total energy-change (2. order) : 0.3285394E-02  (-0.4038161E-03)
 number of electron      99.0000001 magnetization 
 augmentation part        6.3282906 magnetization 

 Broyden mixing:
  rms(total) = 0.14505E-01    rms(broyden)= 0.14505E-01
  rms(prec ) = 0.28512E-01
  weight for this iteration     100.00

 eigenvalues of (default mixing * dielectric matrix)
  average eigenvalue GAMMA=   1.3721
  2.7664  2.5500  0.9541  0.9541  0.8980  0.8980  0.5842

 Free energy of the ion-electron system (eV)
  ---------------------------------------------------
  alpha Z        PSCENC =       136.13904470
  Ewald energy   TEWEN  =      7918.55382584
  -Hartree energ DENC   =    -13332.94414600
  -exchange      EXHF   =         0.00000000
  -V(xc)+E(xc)   XCENC  =      -326.21322292
  PAW double counting   =      6319.45798053    -5649.83581112
  entropy T*S    EENTRO =        -0.00907553
  eigenvalues    EBANDS =      -112.45999937
  atomic energy  EATOM  =      4905.68083858
  ---------------------------------------------------
  free energy    TOTEN  =      -141.63056528 eV

  energy without entropy =     -141.62148976  energy(sigma->0) =     -141.62602752


--------------------------------------------------------------------------------------------------------




----------------------------------------- Iteration    1(  13)  ---------------------------------------


    POTLOK:  cpu time    0.09: real time    0.09
    SETDIJ:  cpu time    0.09: real time    0.09
     EDDAV:  cpu time    5.53: real time    5.54
       DOS:  cpu time    0.00: real time    0.00
    CHARGE:  cpu time    0.36: real time    0.36
    MIXING:  cpu time    0.00: real time    0.00
    --------------------------------------------
      LOOP:  cpu time    6.08: real time    6.09

 eigenvalue-minimisations  :  4088
 total energy-change (2. order) : 0.7777547E-02  (-0.5106303E-03)
 number of electron      99.0000001 magnetization 
 augmentation part        6.3306806 magnetization 

 Broyden mixing:
  rms(total) = 0.10122E-01    rms(broyden)= 0.10120E-01
  rms(prec ) = 0.23334E-01
  weight for this iteration     100.00

 eigenvalues of (default mixing * dielectric matrix)
  average eigenvalue GAMMA=   1.3319
  2.8099  2.4887  0.8264  0.8264  1.0738  0.9585  0.9585  0.7127

 Free energy of the ion-electron system (eV)
  ---------------------------------------------------
  alpha Z        PSCENC =       136.13904470
  Ewald energy   TEWEN  =      7918.55382584
  -Hartree energ DENC   =    -13334.68854554
  -exchange      EXHF   =         0.00000000
  -V(xc)+E(xc)   XCENC  =      -326.24653802
  PAW double counting   =      6290.67052596    -5621.04219331
  entropy T*S    EENTRO =        -0.00923553
  eigenvalues    EBANDS =      -110.68051042
  atomic energy  EATOM  =      4905.68083858
  ---------------------------------------------------
  free energy    TOTEN  =      -141.62278773 eV

  energy without entropy =     -141.61355220  energy(sigma->0) =     -141.61816997


--------------------------------------------------------------------------------------------------------




----------------------------------------- Iteration    1(  14)  ---------------------------------------


    POTLOK:  cpu time    0.09: real time    0.09
    SETDIJ:  cpu time    0.10: real time    0.10
     EDDAV:  cpu time    4.52: real time    4.53
       DOS:  cpu time    0.00: real time    0.00
    CHARGE:  cpu time    0.36: real time    0.36
    MIXING:  cpu time    0.00: real time    0.00
    --------------------------------------------
      LOOP:  cpu time    5.08: real time    5.09

 eigenvalue-minimisations  :  3152
 total energy-change (2. order) : 0.2188495E-02  (-0.5815482E-03)
 number of electron      99.0000001 magnetization 
 augmentation part        6.3329011 magnetization 

 Broyden mixing:
  rms(total) = 0.10320E-01    rms(broyden)= 0.10317E-01
  rms(prec ) = 0.22256E-01
  weight for this iteration     100.00

 eigenvalues of (default mixing * dielectric matrix)
  average eigenvalue GAMMA=   1.2667
  2.9113  2.4838  0.9654  0.9654  1.0135  0.9175  0.9175  0.7148  0.5108

 Free energy of the ion-electron system (eV)
  ---------------------------------------------------
  alpha Z        PSCENC =       136.13904470
  Ewald energy   TEWEN  =      7918.55382584
  -Hartree energ DENC   =    -13335.48463308
  -exchange      EXHF   =         0.00000000
  -V(xc)+E(xc)   XCENC  =      -326.25652759
  PAW double counting   =      6290.97804592    -5621.34631518
  entropy T*S    EENTRO =        -0.00923861
  eigenvalues    EBANDS =      -109.87563983
  atomic energy  EATOM  =      4905.68083858
  ---------------------------------------------------
  free energy    TOTEN  =      -141.62059924 eV

  energy without entropy =     -141.61136063  energy(sigma->0) =     -141.61597994


--------------------------------------------------------------------------------------------------------




----------------------------------------- Iteration    1(  15)  ---------------------------------------


    POTLOK:  cpu time    0.09: real time    0.09
    SETDIJ:  cpu time    0.09: real time    0.09
     EDDAV:  cpu time    5.58: real time    5.59
       DOS:  cpu time    0.00: real time    0.00
    CHARGE:  cpu time    0.36: real time    0.36
    MIXING:  cpu time    0.00: real time    0.00
    --------------------------------------------
      LOOP:  cpu time    6.13: real time    6.14

 eigenvalue-minimisations  :  4136
 total energy-change (2. order) : 0.7113957E-02  (-0.1128190E-02)
 number of electron      99.0000001 magnetization 
 augmentation part        6.3260945 magnetization 

 Broyden mixing:
  rms(total) = 0.18934E-01    rms(broyden)= 0.18931E-01
  rms(prec ) = 0.23377E-01
  weight for this iteration     100.00

 eigenvalues of (default mixing * dielectric matrix)
  average eigenvalue GAMMA=   1.4797
  3.7471  2.7147  2.2640  0.9711  0.9711  0.9504  0.9504  0.7829  0.7829  0.6624

 Free energy of the ion-electron system (eV)
  ---------------------------------------------------
  alpha Z        PSCENC =       136.13904470
  Ewald energy   TEWEN  =      7918.55382584
  -Hartree energ DENC   =    -13339.65596522
  -exchange      EXHF   =         0.00000000
  -V(xc)+E(xc)   XCENC  =      -326.21867057
  PAW double counting   =      6283.51046369    -5613.89148943
  entropy T*S    EENTRO =        -0.00964068
  eigenvalues    EBANDS =      -105.72189220
  atomic energy  EATOM  =      4905.68083858
  ---------------------------------------------------
  free energy    TOTEN  =      -141.61348528 eV

  energy without entropy =     -141.60384460  energy(sigma->0) =     -141.60866494


--------------------------------------------------------------------------------------------------------




----------------------------------------- Iteration    1(  16)  ---------------------------------------


    POTLOK:  cpu time    0.09: real time    0.09
    SETDIJ:  cpu time    0.10: real time    0.10
     EDDAV:  cpu time    4.92: real time    4.93
       DOS:  cpu time    0.00: real time    0.00
    CHARGE:  cpu time    0.36: real time    0.36
    MIXING:  cpu time    0.00: real time    0.00
    --------------------------------------------
      LOOP:  cpu time    5.47: real time    5.48

 eigenvalue-minimisations  :  3528
 total energy-change (2. order) : 0.4832875E-02  (-0.8283891E-03)
 number of electron      99.0000001 magnetization 
 augmentation part        6.3261230 magnetization 

 Broyden mixing:
  rms(total) = 0.18800E-01    rms(broyden)= 0.18799E-01
  rms(prec ) = 0.21041E-01
  weight for this iteration     100.00

 eigenvalues of (default mixing * dielectric matrix)
  average eigenvalue GAMMA=   1.6030
  5.0050  2.8414  2.4773  1.1292  1.1292  0.9716  0.9716  0.8452  0.8452  0.7088
  0.7088

 Free energy of the ion-electron system (eV)
  ---------------------------------------------------
  alpha Z        PSCENC =       136.13904470
  Ewald energy   TEWEN  =      7918.55382584
  -Hartree energ DENC   =    -13342.48174783
  -exchange      EXHF   =         0.00000000
  -V(xc)+E(xc)   XCENC  =      -326.27052141
  PAW double counting   =      6286.11574149    -5616.48622388
  entropy T*S    EENTRO =        -0.00981919
  eigenvalues    EBANDS =      -102.84979071
  atomic energy  EATOM  =      4905.68083858
  ---------------------------------------------------
  free energy    TOTEN  =      -141.60865241 eV

  energy without entropy =     -141.59883322  energy(sigma->0) =     -141.60374281


--------------------------------------------------------------------------------------------------------




----------------------------------------- Iteration    1(  17)  ---------------------------------------


    POTLOK:  cpu time    0.09: real time    0.09
    SETDIJ:  cpu time    0.09: real time    0.09
     EDDAV:  cpu time    4.60: real time    4.61
       DOS:  cpu time    0.00: real time    0.00
    CHARGE:  cpu time    0.35: real time    0.36
    MIXING:  cpu time    0.01: real time    0.01
    --------------------------------------------
      LOOP:  cpu time    5.15: real time    5.16

 eigenvalue-minimisations  :  3232
 total energy-change (2. order) : 0.2198235E-02  (-0.1355544E-02)
 number of electron      99.0000001 magnetization 
 augmentation part        6.3288905 magnetization 

 Broyden mixing:
  rms(total) = 0.76797E-02    rms(broyden)= 0.76726E-02
  rms(prec ) = 0.10058E-01
  weight for this iteration     100.00

 eigenvalues of (default mixing * dielectric matrix)
  average eigenvalue GAMMA=   1.6946
  6.0256  3.0628  2.4610  1.5172  1.0512  1.0512  1.0986  0.8225  0.8225  0.9625
  0.7302  0.7302

 Free energy of the ion-electron system (eV)
  ---------------------------------------------------
  alpha Z        PSCENC =       136.13904470
  Ewald energy   TEWEN  =      7918.55382584
  -Hartree energ DENC   =    -13343.91434368
  -exchange      EXHF   =         0.00000000
  -V(xc)+E(xc)   XCENC  =      -326.30966701
  PAW double counting   =      6297.43834260    -5627.79733178
  entropy T*S    EENTRO =        -0.00980033
  eigenvalues    EBANDS =      -101.38736309
  atomic energy  EATOM  =      4905.68083858
  ---------------------------------------------------
  free energy    TOTEN  =      -141.60645417 eV

  energy without entropy =     -141.59665385  energy(sigma->0) =     -141.60155401


--------------------------------------------------------------------------------------------------------




----------------------------------------- Iteration    1(  18)  ---------------------------------------


    POTLOK:  cpu time    0.09: real time    0.09
    SETDIJ:  cpu time    0.09: real time    0.09
     EDDAV:  cpu time    5.10: real time    5.11
       DOS:  cpu time    0.00: real time    0.00
    CHARGE:  cpu time    0.35: real time    0.36
    MIXING:  cpu time    0.01: real time    0.01
    --------------------------------------------
      LOOP:  cpu time    5.65: real time    5.66

 eigenvalue-minimisations  :  3688
 total energy-change (2. order) : 0.1557905E-02  (-0.4671476E-03)
 number of electron      99.0000001 magnetization 
 augmentation part        6.3279227 magnetization 

 Broyden mixing:
  rms(total) = 0.99392E-02    rms(broyden)= 0.99372E-02
  rms(prec ) = 0.10821E-01
  weight for this iteration     100.00

 eigenvalues of (default mixing * dielectric matrix)
  average eigenvalue GAMMA=   1.9165
  8.5565  2.9460  2.4707  2.4707  1.0429  1.0429  1.2432  0.8332  0.8332  1.0496
  0.9760  0.7247  0.7247

 Free energy of the ion-electron system (eV)
  ---------------------------------------------------
  alpha Z        PSCENC =       136.13904470
  Ewald energy   TEWEN  =      7918.55382584
  -Hartree energ DENC   =    -13345.37319704
  -exchange      EXHF   =         0.00000000
  -V(xc)+E(xc)   XCENC  =      -326.30190422
  PAW double counting   =      6305.64926813    -5636.00924571
  entropy T*S    EENTRO =        -0.00981248
  eigenvalues    EBANDS =       -99.93371407
  atomic energy  EATOM  =      4905.68083858
  ---------------------------------------------------
  free energy    TOTEN  =      -141.60489627 eV

  energy without entropy =     -141.59508378  energy(sigma->0) =     -141.59999003


--------------------------------------------------------------------------------------------------------




----------------------------------------- Iteration    1(  19)  ---------------------------------------


    POTLOK:  cpu time    0.09: real time    0.09
    SETDIJ:  cpu time    0.09: real time    0.09
     EDDAV:  cpu time    4.58: real time    4.59
       DOS:  cpu time    0.00: real time    0.00
    CHARGE:  cpu time    0.35: real time    0.35
    MIXING:  cpu time    0.01: real time    0.01
    --------------------------------------------
      LOOP:  cpu time    5.13: real time    5.13

 eigenvalue-minimisations  :  3264
 total energy-change (2. order) : 0.3781676E-03  (-0.3517738E-03)
 number of electron      99.0000001 magnetization 
 augmentation part        6.3284753 magnetization 

 Broyden mixing:
  rms(total) = 0.77319E-02    rms(broyden)= 0.77314E-02
  rms(prec ) = 0.81593E-02
  weight for this iteration     100.00

 eigenvalues of (default mixing * dielectric matrix)
  average eigenvalue GAMMA=   1.8921
  8.7696  3.4006  2.5382  2.5382  1.4863  1.0831  1.0831  0.8332  0.8332  0.9850
  0.9850  0.7202  0.7202  0.5128

 Free energy of the ion-electron system (eV)
  ---------------------------------------------------
  alpha Z        PSCENC =       136.13904470
  Ewald energy   TEWEN  =      7918.55382584
  -Hartree energ DENC   =    -13346.10053614
  -exchange      EXHF   =         0.00000000
  -V(xc)+E(xc)   XCENC  =      -326.30502494
  PAW double counting   =      6303.71582167    -5634.07486042
  entropy T*S    EENTRO =        -0.00984933
  eigenvalues    EBANDS =       -99.20377806
  atomic energy  EATOM  =      4905.68083858
  ---------------------------------------------------
  free energy    TOTEN  =      -141.60451810 eV

  energy without entropy =     -141.59466877  energy(sigma->0) =     -141.59959344


--------------------------------------------------------------------------------------------------------




----------------------------------------- Iteration    1(  20)  ---------------------------------------


    POTLOK:  cpu time    0.09: real time    0.09
    SETDIJ:  cpu time    0.09: real time    0.09
     EDDAV:  cpu time    4.52: real time    4.52
       DOS:  cpu time    0.00: real time    0.00
    CHARGE:  cpu time    0.37: real time    0.37
    MIXING:  cpu time    0.01: real time    0.01
    --------------------------------------------
      LOOP:  cpu time    5.07: real time    5.08

 eigenvalue-minimisations  :  3160
 total energy-change (2. order) : 0.1427819E-03  (-0.2724359E-03)
 number of electron      99.0000001 magnetization 
 augmentation part        6.3277004 magnetization 

 Broyden mixing:
  rms(total) = 0.36358E-02    rms(broyden)= 0.36315E-02
  rms(prec ) = 0.38161E-02
  weight for this iteration     100.00

 eigenvalues of (default mixing * dielectric matrix)
  average eigenvalue GAMMA=   2.0845
 10.6120  4.7080  2.7101  2.3851  1.5701  1.1489  1.1489  0.9979  0.9979  0.9557
  0.9557  0.8250  0.8250  0.7137  0.7137

 Free energy of the ion-electron system (eV)
  ---------------------------------------------------
  alpha Z        PSCENC =       136.13904470
  Ewald energy   TEWEN  =      7918.55382584
  -Hartree energ DENC   =    -13346.30611330
  -exchange      EXHF   =         0.00000000
  -V(xc)+E(xc)   XCENC  =      -326.29477802
  PAW double counting   =      6301.46475108    -5631.82776599
  entropy T*S    EENTRO =        -0.00986891
  eigenvalues    EBANDS =       -99.00430930
  atomic energy  EATOM  =      4905.68083858
  ---------------------------------------------------
  free energy    TOTEN  =      -141.60437532 eV

  energy without entropy =     -141.59450640  energy(sigma->0) =     -141.59944086


--------------------------------------------------------------------------------------------------------




----------------------------------------- Iteration    1(  21)  ---------------------------------------


    POTLOK:  cpu time    0.10: real time    0.10
    SETDIJ:  cpu time    0.10: real time    0.10
     EDDAV:  cpu time    4.49: real time    4.50
       DOS:  cpu time    0.00: real time    0.00
    CHARGE:  cpu time    0.36: real time    0.36
    MIXING:  cpu time    0.01: real time    0.01
    --------------------------------------------
      LOOP:  cpu time    5.06: real time    5.07

 eigenvalue-minimisations  :  3112
 total energy-change (2. order) : 0.2657792E-04  (-0.5892302E-04)
 number of electron      99.0000001 magnetization 
 augmentation part        6.3273005 magnetization 

 Broyden mixing:
  rms(total) = 0.26590E-02    rms(broyden)= 0.26583E-02
  rms(prec ) = 0.27348E-02
  weight for this iteration     100.00

 eigenvalues of (default mixing * dielectric matrix)
  average eigenvalue GAMMA=   2.5614
 18.1217  5.4475  2.9048  2.3145  2.3145  1.1067  1.1067  0.8447  0.8447  0.9380
  0.9380  0.9609  0.9609  0.7750  0.7019  0.7019

 Free energy of the ion-electron system (eV)
  ---------------------------------------------------
  alpha Z        PSCENC =       136.13904470
  Ewald energy   TEWEN  =      7918.55382584
  -Hartree energ DENC   =    -13346.61719766
  -exchange      EXHF   =         0.00000000
  -V(xc)+E(xc)   XCENC  =      -326.28826184
  PAW double counting   =      6300.45339528    -5630.81806984
  entropy T*S    EENTRO =        -0.00985422
  eigenvalues    EBANDS =       -98.69806958
  atomic energy  EATOM  =      4905.68083858
  ---------------------------------------------------
  free energy    TOTEN  =      -141.60434874 eV

  energy without entropy =     -141.59449452  energy(sigma->0) =     -141.59942163


--------------------------------------------------------------------------------------------------------




----------------------------------------- Iteration    1(  22)  ---------------------------------------


    POTLOK:  cpu time    0.10: real time    0.10
    SETDIJ:  cpu time    0.11: real time    0.11
     EDDAV:  cpu time    4.31: real time    4.31
       DOS:  cpu time    0.00: real time    0.00
    CHARGE:  cpu time    0.37: real time    0.37
    MIXING:  cpu time    0.01: real time    0.01
    --------------------------------------------
      LOOP:  cpu time    4.89: real time    4.90

 eigenvalue-minimisations  :  2960
 total energy-change (2. order) :-0.8326259E-05  (-0.2576681E-04)
 number of electron      99.0000001 magnetization 
 augmentation part        6.3268739 magnetization 

 Broyden mixing:
  rms(total) = 0.17330E-02    rms(broyden)= 0.17327E-02
  rms(prec ) = 0.17740E-02
  weight for this iteration     100.00

 eigenvalues of (default mixing * dielectric matrix)
  average eigenvalue GAMMA=   2.8465
 23.8513  5.6273  2.9451  2.5592  2.0492  1.0916  1.0916  1.3178  1.0420  1.0420
  0.8236  0.8236  0.9221  0.9221  0.7081  0.7081  0.8664

 Free energy of the ion-electron system (eV)
  ---------------------------------------------------
  alpha Z        PSCENC =       136.13904470
  Ewald energy   TEWEN  =      7918.55382584
  -Hartree energ DENC   =    -13346.63816877
  -exchange      EXHF   =         0.00000000
  -V(xc)+E(xc)   XCENC  =      -326.28548474
  PAW double counting   =      6296.84093517    -5627.20690889
  entropy T*S    EENTRO =        -0.00984942
  eigenvalues    EBANDS =       -98.67858955
  atomic energy  EATOM  =      4905.68083858
  ---------------------------------------------------
  free energy    TOTEN  =      -141.60435707 eV

  energy without entropy =     -141.59450765  energy(sigma->0) =     -141.59943236


--------------------------------------------------------------------------------------------------------




----------------------------------------- Iteration    1(  23)  ---------------------------------------


    POTLOK:  cpu time    0.10: real time    0.10
    SETDIJ:  cpu time    0.10: real time    0.10
     EDDAV:  cpu time    4.25: real time    4.26
       DOS:  cpu time    0.00: real time    0.00
    CHARGE:  cpu time    0.36: real time    0.36
    MIXING:  cpu time    0.01: real time    0.01
    --------------------------------------------
      LOOP:  cpu time    4.81: real time    4.82

 eigenvalue-minimisations  :  2912
 total energy-change (2. order) :-0.5881294E-05  (-0.1434438E-04)
 number of electron      99.0000001 magnetization 
 augmentation part        6.3273835 magnetization 

 Broyden mixing:
  rms(total) = 0.19750E-02    rms(broyden)= 0.19744E-02
  rms(prec ) = 0.20097E-02
  weight for this iteration     100.00

 eigenvalues of (default mixing * dielectric matrix)
  average eigenvalue GAMMA=   2.8002
 25.0196  5.3957  2.9681  2.4737  1.8435  1.8435  1.0971  1.0971  1.1166  1.0578
  1.0578  0.8305  0.8305  0.8518  0.8518  0.6908  0.6908  0.6873

 Free energy of the ion-electron system (eV)
  ---------------------------------------------------
  alpha Z        PSCENC =       136.13904470
  Ewald energy   TEWEN  =      7918.55382584
  -Hartree energ DENC   =    -13346.59246768
  -exchange      EXHF   =         0.00000000
  -V(xc)+E(xc)   XCENC  =      -326.28855832
  PAW double counting   =      6295.50731797    -5625.87218244
  entropy T*S    EENTRO =        -0.00985087
  eigenvalues    EBANDS =       -98.72233073
  atomic energy  EATOM  =      4905.68083858
  ---------------------------------------------------
  free energy    TOTEN  =      -141.60436295 eV

  energy without entropy =     -141.59451208  energy(sigma->0) =     -141.59943752


--------------------------------------------------------------------------------------------------------




----------------------------------------- Iteration    1(  24)  ---------------------------------------


    POTLOK:  cpu time    0.09: real time    0.09
    SETDIJ:  cpu time    0.09: real time    0.09
     EDDAV:  cpu time    3.45: real time    3.46
       DOS:  cpu time    0.00: real time    0.00
    --------------------------------------------
      LOOP:  cpu time    3.64: real time    3.65

 eigenvalue-minimisations  :  2136
 total energy-change (2. order) : 0.3075897E-05  (-0.1965632E-05)
 number of electron      99.0000001 magnetization 
 augmentation part        6.3273835 magnetization 

 Free energy of the ion-electron system (eV)
  ---------------------------------------------------
  alpha Z        PSCENC =       136.13904470
  Ewald energy   TEWEN  =      7918.55382584
  -Hartree energ DENC   =    -13346.62585849
  -exchange      EXHF   =         0.00000000
  -V(xc)+E(xc)   XCENC  =      -326.28773156
  PAW double counting   =      6295.58721011    -5625.95195162
  entropy T*S    EENTRO =        -0.00985171
  eigenvalues    EBANDS =       -98.68988573
  atomic energy  EATOM  =      4905.68083858
  ---------------------------------------------------
  free energy    TOTEN  =      -141.60435987 eV

  energy without entropy =     -141.59450816  energy(sigma->0) =     -141.59943402


--------------------------------------------------------------------------------------------------------




 average (electrostatic) potential at core
  the test charge radii are     0.7215  1.0714  1.0406
  (the norm of the test charge is              1.0000)
       1 -69.4173       2 -68.6933       3 -68.6876       4 -68.6818       5 -68.6680
       6 -68.6725       7 -69.4150       8 -68.6948       9 -68.6736      10 -68.6804
      11 -34.3332      12 -34.3197      13 -34.3142      14 -34.3418      15 -34.3231
      16 -34.3123      17 -34.3354      18 -34.3080      19 -34.3342      20 -75.5960
      21 -75.2154      22 -75.6018      23 -75.5380      24 -75.2155      25 -75.5382
      26 -75.6021
 
 
 
 E-fermi :   5.1739     XC(G=0): -10.4467     alpha+bet :-12.9228


 k-point     1 :       0.0000    0.0000    0.0000
  band No.  band energies     occupation 
      1     -13.3706      2.00000
      2     -13.3667      2.00000
      3     -12.9146      2.00000
      4     -12.8140      2.00000
      5     -12.6665      2.00000
      6     -12.4887      2.00000
      7     -12.2993      2.00000
      8     -12.1219      2.00000
      9     -11.9748      2.00000
     10     -11.8739      2.00000
     11      -5.2201      2.00000
     12      -4.8429      2.00000
     13      -4.2436      2.00000
     14      -3.3376      2.00000
     15      -2.2610      2.00000
     16      -1.2558      2.00000
     17      -0.5562      2.00000
     18      -0.2408      2.00000
     19      -0.0784      2.00000
     20       0.4702      2.00000
[...]
     53       6.0704      0.00000
     54       6.5618      0.00000
     55       6.7731      0.00000
     56       7.0226      0.00000
     57       7.7123      0.00000
     58       8.2397      0.00000
     59       8.9091      0.00000
     60       9.2145      0.00000
     61       9.5311      0.00000
     62      10.8048      0.00000
     63      10.8310      0.00000
     64      11.2173      0.00000

 k-point    19 :       0.3077    0.2308   -0.0000
  band No.  band energies     occupation 
      1     -12.6221      2.00000
      2     -12.6197      2.00000
      3     -11.7885      2.00000
      4     -11.7649      2.00000
      5     -11.7305      2.00000
      6     -11.6898      2.00000
      7     -11.6471      2.00000
      8     -11.6074      2.00000
      9     -11.5771      2.00000
     10     -11.5535      2.00000
     11      -0.4484      2.00000
     12      -0.3220      2.00000
     13      -0.0839      2.00000
     14       0.1198      2.00000
     15       0.1588      2.00000
     16       0.2926      2.00000
     17       0.3675      2.00000
     18       0.4708      2.00000
     19       0.5145      2.00000
     20       0.5924      2.00000
     21       0.6126      2.00000
     22       0.7699      2.00000
     23       0.9570      2.00000
     24       1.0092      2.00000
     25       1.1607      2.00000
     26       1.4768      2.00000
     27       1.6351      2.00000
     28       1.6499      2.00000
     29       1.6612      2.00000
     30       1.7852      2.00000
     31       1.8406      2.00000
     32       2.0097      2.00000
     33       2.0624      2.00000
     34       2.1928      2.00000
     35       2.2467      2.00000
     36       2.3842      2.00000
     37       2.4835      2.00000
     38       2.6542      2.00000
     39       2.7867      2.00000
     40       2.8826      2.00000
     41       2.8942      2.00000
     42       2.9624      2.00000
     43       3.0270      2.00000
     44       3.0768      2.00000
     45       3.1594      2.00000
     46       3.2552      2.00000
     47       3.2916      2.00000
     48       3.7785      2.00000
     49       4.2899      2.00000
     50       4.4497      2.00000
     51       4.7802      2.00000
     52       5.0076      2.00000
     53       5.4060      0.00000
     54       5.9287      0.00000
     55       6.2988      0.00000
     56       6.6351      0.00000
     57       7.4524      0.00000
     58       7.7687      0.00000
     59       8.0355      0.00000
     60       9.0635      0.00000
     61       9.2047      0.00000
     62       9.8752      0.00000
     63      10.6862      0.00000
     64      10.8164      0.00000

 k-point    20 :       0.3846    0.2308   -0.0000
  band No.  band energies     occupation 
      1     -12.5867      2.00000
      2     -12.5844      2.00000
      3     -11.6973      2.00000
      4     -11.6830      2.00000
      5     -11.6666      2.00000
      6     -11.6460      2.00000
      7     -11.6236      2.00000
      8     -11.6021      2.00000
      9     -11.5855      2.00000
     10     -11.5698      2.00000
     11      -0.0046      2.00000
     12       0.0035      2.00000
     13       0.1707      2.00000
     14       0.1768      2.00000
     15       0.2358      2.00000
     16       0.4166      2.00000
     17       0.6186      2.00000
     18       0.6264      2.00000
     19       0.6735      2.00000
     20       0.7162      2.00000
     21       0.9093      2.00000
     22       0.9248      2.00000
     23       1.1659      2.00000
     24       1.1875      2.00000
     25       1.4690      2.00000
     26       1.4746      2.00000
     27       1.5723      2.00000
     28       1.6317      2.00000
     29       1.6626      2.00000
     30       1.6709      2.00000
     31       1.6828      2.00000
     32       1.7321      2.00000
     33       1.8089      2.00000
     34       2.0119      2.00000
     35       2.0658      2.00000
     36       2.2230      2.00000
     37       2.2827      2.00000
     38       2.3537      2.00000
     39       2.6864      2.00000
     40       2.6946      2.00000
     41       2.7602      2.00000
     42       2.8196      2.00000
     43       2.9435      2.00000
     44       3.0522      2.00000
     45       3.0659      2.00000
     46       3.1333      2.00000
     47       3.1434      2.00000
     48       3.2423      2.00000
     49       4.1079      2.00000
     50       4.3341      2.00000
     51       4.6772      2.00000
     52       4.6942      2.00000
     53       5.1441      1.96041
     54       5.7157      0.00000
     55       5.8739      0.00000
     56       6.6608      0.00000
     57       7.4426      0.00000
     58       7.5085      0.00000
     59       8.1087      0.00000
     60       8.7998      0.00000
     61       8.9739      0.00000
     62       9.6795      0.00000
     63      10.4902      0.00000
     64      10.7519      0.00000

 k-point    21 :       0.3077    0.3077   -0.0000
  band No.  band energies     occupation 
      1     -12.5714      2.00000
      2     -12.5691      2.00000
      3     -11.6640      2.00000
      4     -11.6512      2.00000
      5     -11.6393      2.00000
      6     -11.6245      2.00000
      7     -11.6093      2.00000
      8     -11.5958      2.00000
      9     -11.5853      2.00000
     10     -11.5735      2.00000
     11       0.1313      2.00000
     12       0.1368      2.00000
     13       0.3807      2.00000
     14       0.3855      2.00000
     15       0.5529      2.00000
     16       0.5663      2.00000
     17       0.6733      2.00000
     18       0.6973      2.00000
     19       0.7709      2.00000
     20       0.8677      2.00000
     21       0.9331      2.00000
     22       1.0441      2.00000
     23       1.0723      2.00000
     24       1.1630      2.00000
     25       1.1988      2.00000
     26       1.3539      2.00000
     27       1.3746      2.00000
     28       1.3882      2.00000
     29       1.4877      2.00000
     30       1.5878      2.00000
     31       1.6595      2.00000
     32       1.7723      2.00000
     33       1.8247      2.00000
     34       1.9493      2.00000
     35       2.1868      2.00000
     36       2.6264      2.00000
     37       2.6346      2.00000
     38       2.6780      2.00000
     39       2.7606      2.00000
     40       2.8626      2.00000
     41       2.9051      2.00000
     42       2.9465      2.00000
     43       2.9570      2.00000
     44       2.9721      2.00000
     45       3.0371      2.00000
     46       3.0738      2.00000
     47       3.0890      2.00000
     48       3.1018      2.00000
     49       3.6013      2.00000
     50       3.6216      2.00000
     51       3.9994      2.00000
     52       4.3669      2.00000
     53       4.8693      2.00000
     54       5.5077      0.00000
     55       5.9553      0.00000
     56       6.2473      0.00000
     57       7.1282      0.00000
     58       7.5028      0.00000
     59       7.6110      0.00000
     60       8.8263      0.00000
     61       9.1324      0.00000
     62       9.3085      0.00000
     63      10.2881      0.00000
     64      10.9143      0.00000


--------------------------------------------------------------------------------------------------------


 soft charge-density along one line, spin component           1
         0         1         2         3         4         5         6         7         8         9
 total charge-density along one line
 
 pseudopotential strength for first ion, spin component:           1
 12.065   0.000 -14.671   0.000  -0.000   0.000   0.023   0.000   0.000   0.000   0.000   0.000  -0.029   0.000  -0.000   0.000
-14.671   0.000  17.857   0.000   0.000   0.000  -0.029   0.000  -0.000   0.000  -0.000   0.000   0.037   0.000   0.000   0.000
 -0.000   0.000   0.000   0.000  -8.150   0.000  -0.000   0.000   0.000   0.000   9.723   0.000   0.000   0.000  -0.000   0.000
  0.023   0.000  -0.029   0.000  -0.000   0.000  -8.211   0.000   0.000   0.000   0.000   0.000   9.805   0.000  -0.000   0.000
  0.000   0.000  -0.000   0.000   0.000   0.000   0.000   0.000  -8.150   0.000  -0.000   0.000  -0.000   0.000   9.723   0.000
  0.000   0.000  -0.000   0.000   9.723   0.000   0.000   0.000  -0.000   0.000 -11.430   0.000  -0.000   0.000   0.000   0.000
 -0.029   0.000   0.037   0.000   0.000   0.000   9.805   0.000  -0.000   0.000  -0.000   0.000 -11.540   0.000   0.000   0.000
 -0.000   0.000   0.000   0.000  -0.000   0.000  -0.000   0.000   9.723   0.000   0.000   0.000   0.000   0.000 -11.430   0.000
 total augmentation occupancy for first ion, spin component:           1
  2.647   0.382   0.000  -0.079  -0.000   0.000  -0.033  -0.000
  0.382   0.078   0.000  -0.074  -0.000   0.000  -0.016  -0.000
  0.000   0.000   2.129  -0.000   0.000   0.235  -0.000   0.000
 -0.079  -0.074  -0.000   2.248   0.000  -0.000   0.315   0.000
 -0.000  -0.000   0.000   0.000   2.129   0.000   0.000   0.235
  0.000   0.000   0.235  -0.000   0.000   0.029  -0.000   0.000
 -0.033  -0.016  -0.000   0.315   0.000  -0.000   0.049   0.000
 -0.000  -0.000   0.000   0.000   0.235   0.000   0.000   0.029


------------------------ aborting loop because EDIFF is reached ----------------------------------------


    CHARGE:  cpu time    0.35: real time    0.36
    FORLOC:  cpu time    0.03: real time    0.03
    FORNL :  cpu time    2.86: real time    2.86
    STRESS:  cpu time    3.88: real time    3.88
    FORCOR:  cpu time    0.13: real time    0.13
    FORHAR:  cpu time    0.05: real time    0.05
    MIXING:  cpu time    0.00: real time    0.00
    OFIELD:  cpu time    0.00: real time    0.00

  FORCE on cell =-STRESS in cart. coord.  units (eV):
  Direction    XX          YY          ZZ          XY          YZ          ZX
  --------------------------------------------------------------------------------------
  Alpha Z   136.13904   136.13904   136.13904
  Ewald   11185.22959 11185.22993-13778.24144    -0.00003    -0.00000    -0.00014
  Hartree 13057.24018 13057.24010-12096.25830    -0.00000    -0.00000     0.00004
  E(xc)    -415.05299  -415.05301  -415.47632    -0.00000     0.00000    -0.00000
  Local  -25473.78888-25473.78836 24652.05387    -0.00019    -0.00000     0.00004
  n-local   -60.00215   -75.43156   -56.19166     3.18646    -1.51457     4.87056
  augment    61.24630    61.24605    59.48458     0.00018     0.00000     0.00000
  Kinetic  1522.38984  1504.67838  1488.12212    -2.40529    -0.67264     1.11841
  Fock        0.00000     0.00000     0.00000     0.00000     0.00000     0.00000
  -------------------------------------------------------------------------------------
  Total      -3.16925    -3.16925   -10.36811     0.00000     0.00000    -0.00000
  in kB     -16.38027   -16.38026   -53.58749     0.00000     0.00000    -0.00000
  external pressure =      -28.78 kB  Pullay stress =        0.00 kB


 VOLUME and BASIS-vectors are now :
 -----------------------------------------------------------------------------
  energy-cutoff  :      520.00
  volume of cell :      309.99
      direct lattice vectors                 reciprocal lattice vectors
     2.600457673 -1.501374484  0.000000000     0.384547693  0.000000000 -0.000000000
     0.000000000  3.002748968  0.000000000     0.192273847  0.333028172 -0.000000000
     0.000000000 -0.000000000 39.698843459     0.000000000  0.000000000  0.025189651

  length of vectors
     3.002749648  3.002748968 39.698843459     0.384547693  0.384547781  0.025189651


 FORCES acting on ions
    electron-ion (+dipol)            ewald-force                    non-local-force                 convergence-correction
 -----------------------------------------------------------------------------------------------
   0.238E-05 -.473E-06 0.111E+04   0.239E-04 -.267E-04 -.110E+04   -.154E-15 0.179E-16 -.947E+01   -.905E-09 0.134E-08 -.719E-02
   0.106E-02 -.184E-02 0.868E+03   0.581E-04 -.995E-04 -.868E+03   0.519E-18 -.122E-19 0.289E-01   -.190E-07 0.331E-07 0.416E-02
   -.113E-07 0.136E-08 0.371E+03   -.597E-07 0.710E-07 -.371E+03   0.288E-18 -.338E-19 0.159E-01   -.587E-09 0.937E-09 0.364E-01
   0.107E-02 -.185E-02 0.124E+03   0.567E-04 -.983E-04 -.124E+03   0.809E-19 -.120E-19 0.448E-02   -.224E-07 0.385E-07 0.349E-01
   0.115E-07 -.148E-08 -.371E+03   -.116E-07 0.921E-08 0.371E+03   -.686E-19 -.117E-19 -.436E-02   0.992E-09 -.145E-08 0.257E-02
   0.107E-02 -.185E-02 -.620E+03   0.568E-04 -.984E-04 0.620E+03   0.166E-18 -.246E-19 0.817E-02   0.163E-07 -.290E-07 -.180E-01
   -.238E-05 0.474E-06 -.111E+04   -.239E-04 0.267E-04 0.110E+04   0.175E-15 -.387E-16 0.947E+01   -.666E-10 0.135E-09 -.159E-01
   -.107E-02 0.185E-02 0.620E+03   -.568E-04 0.984E-04 -.620E+03   -.150E-18 0.176E-19 -.963E-02   -.156E-07 0.278E-07 0.273E-01
   -.107E-02 0.185E-02 -.124E+03   -.567E-04 0.982E-04 0.124E+03   0.221E-18 -.325E-19 0.128E-01   0.233E-07 -.398E-07 0.259E-01
   -.106E-02 0.184E-02 -.868E+03   -.582E-04 0.995E-04 0.868E+03   -.572E-18 0.198E-19 -.471E-01   0.139E-07 -.244E-07 -.180E-01
   0.165E-07 -.210E-07 0.248E+03   -.602E-09 0.803E-09 -.248E+03   0.240E-20 0.674E-19 0.818E-03   0.204E-08 -.381E-08 0.539E-02
   -.470E-08 -.224E-07 -.170E-01   0.611E-07 -.686E-07 0.508E-02   -.731E-19 0.111E-18 -.643E-02   0.325E-09 -.567E-09 0.107E-01
   0.320E-07 -.425E-07 -.248E+03   -.405E-07 0.453E-07 0.248E+03   0.494E-19 0.530E-19 0.298E-02   -.236E-08 0.434E-08 -.683E-02
   0.480E-04 -.806E-04 0.334E+03   -.537E-04 0.889E-04 -.334E+03   0.697E-18 -.104E-16 0.895E-01   -.117E-08 0.214E-08 -.189E-02
   0.432E-04 -.748E-04 0.825E+02   -.486E-04 0.842E-04 -.825E+02   -.948E-21 -.531E-19 -.263E-02   -.267E-08 0.499E-08 0.119E-01
   0.432E-04 -.749E-04 -.165E+03   -.487E-04 0.843E-04 0.165E+03   -.175E-20 -.665E-20 -.306E-03   -.346E-09 0.678E-09 -.280E-02
   -.433E-04 0.750E-04 0.165E+03   0.487E-04 -.843E-04 -.165E+03   0.272E-19 -.252E-19 -.457E-02   0.654E-09 -.124E-08 0.111E-01
   -.432E-04 0.748E-04 -.825E+02   0.486E-04 -.841E-04 0.825E+02   -.143E-18 0.111E-18 -.711E-02   0.288E-08 -.536E-08 0.558E-02
   -.480E-04 0.805E-04 -.334E+03   0.537E-04 -.890E-04 0.334E+03   0.634E-18 -.344E-17 -.796E-01   -.604E-09 0.103E-08 -.528E-02
   -.229E-09 0.495E-09 -.196E-01   -.277E-10 0.265E-10 0.260E-01   -.767E-21 -.340E-20 0.273E-04   0.409E-12 -.419E-12 -.641E-02
   -.595E-06 -.514E-07 0.614E+03   0.260E-05 -.241E-05 -.609E+03   -.700E-16 -.257E-16 -.494E+01   -.477E-11 0.365E-11 -.578E-02
   0.156E-04 -.267E-04 0.398E+03   -.352E-05 0.573E-05 -.399E+03   0.219E-18 -.139E-16 0.747E-01   -.520E-11 0.121E-10 -.707E-02
   -.146E-04 0.252E-04 0.196E+03   0.322E-05 -.546E-05 -.197E+03   0.126E-16 -.700E-17 0.151E+00   0.250E-11 -.225E-12 -.771E-02
   0.595E-06 0.523E-07 -.614E+03   -.260E-05 0.241E-05 0.609E+03   0.701E-16 -.437E-16 0.496E+01   -.899E-11 0.157E-10 -.511E-02
   0.146E-04 -.252E-04 -.197E+03   -.322E-05 0.546E-05 0.197E+03   0.303E-17 0.139E-16 -.150E+00   -.586E-11 0.548E-11 -.503E-02
   -.156E-04 0.267E-04 -.398E+03   0.352E-05 -.573E-05 0.399E+03   -.219E-18 0.139E-16 -.745E-01   0.611E-11 -.144E-10 -.513E-02
 -----------------------------------------------------------------------------------------------
   0.171E-07 -.592E-07 -.747E-01   -.223E-13 0.254E-13 0.114E-11   0.381E-16 -.970E-16 0.172E-01   -.532E-08 0.941E-08 0.577E-01
 
 
 POSITION                                       TOTAL-FORCE (eV/Angst)
 -----------------------------------------------------------------------------------
      0.00000     -0.00000      9.76310        -0.000000      0.000000     -0.009114
      0.86682      1.50138     12.15685         0.000000     -0.000000      0.004648
      0.00000     -0.00000     17.14201         0.000000     -0.000000      0.011754
      0.86682      1.50138     19.63587         0.000000      0.000000      0.004805
      0.00000     -0.00000     24.62379        -0.000000      0.000000     -0.002969
      0.86682      1.50138     27.11601        -0.000000      0.000000      0.004488
      0.00000     -0.00000     32.00352        -0.000000      0.000000     -0.008948
      1.73364     -0.00000     14.65019        -0.000000      0.000000     -0.004745
      1.73364     -0.00000     22.12969         0.000000     -0.000000      0.008584
      1.73364     -0.00000     29.60976        -0.000000      0.000000     -0.015495
      0.00000     -0.00000     13.40354         0.000000     -0.000000      0.003197
      0.00000     -0.00000     20.88343        -0.000000      0.000000     -0.007683
      0.00000     -0.00000     28.36242         0.000000     -0.000000      0.003426
      1.73364     -0.00000     10.90742         0.000000     -0.000000      0.013466
      1.73364     -0.00000     18.38934         0.000000     -0.000000      0.000702
      1.73364     -0.00000     25.86998        -0.000000      0.000000     -0.002440
      0.86682      1.50138     15.89650        -0.000000      0.000000     -0.003573
      0.86682      1.50138     23.37734        -0.000000      0.000000     -0.011709
      0.86682      1.50138     30.85823         0.000000     -0.000000      0.001225
      0.00000     -0.00000      1.03349         0.000000     -0.000000      0.000006
      0.00000     -0.00000      8.03167         0.000000     -0.000000      0.012021
      1.73364     -0.00000      5.73978        -0.000000      0.000000     -0.003532
      0.86682      1.50138      3.37038        -0.000000      0.000000     -0.002561
      0.00000     -0.00000     33.73441        -0.000000     -0.000000     -0.001779
      1.73364     -0.00000     38.39544         0.000000     -0.000000      0.002784
      0.86682      1.50138     36.02618         0.000000     -0.000000      0.003440
 -----------------------------------------------------------------------------------
    total drift:                                0.000000     -0.000000      0.000116


--------------------------------------------------------------------------------------------------------



  FREE ENERGIE OF THE ION-ELECTRON SYSTEM (eV)
  ---------------------------------------------------
  free  energy   TOTEN  =      -141.63170728 eV

  energy  without entropy=     -141.62713623  energy(sigma->0) =     -141.62942175
 
 d Force = 0.2789590E-04[ 0.400E-06, 0.554E-04]  d Energy = 0.2603946E-04 0.186E-05
 d Force =-0.4072035E+01[-0.407E+01,-0.407E+01]  d Ewald  =-0.4072035E+01 0.105E-07


--------------------------------------------------------------------------------------------------------


    POTLOK:  cpu time    0.19: real time    0.19


--------------------------------------------------------------------------------------------------------




--------------------------------------------------------------------------------------------------------


  
 reached required accuracy - stopping structural energy minimisation
     LOOP+:  cpu time   31.55: real time   31.59
    4ORBIT:  cpu time    0.00: real time    0.00

 total amount of memory used by VASP on root node   140580. kBytes
========================================================================

   base      :      30000. kBytes
   nonl-proj :      14688. kBytes
   fftplans  :      51726. kBytes
   grid      :      20736. kBytes
   one-center:         56. kBytes
   wavefun   :      23374. kBytes
 
  
  
 General timing and accounting informations for this job:
 ========================================================
  
                  Total CPU time used (sec):     1662.805
                            User time (sec):     1641.558
                          System time (sec):       21.246
                         Elapsed time (sec):     1664.795
  
                   Maximum memory used (kb):      245408.
                   Average memory used (kb):           0.
  
                          Minor page faults:       343812
                          Major page faults:            0
                 Voluntary context switches:          217
