   7   7   0   0
  0.7727382E+02  0.2982875E-09  0.2982868E-09  0.7023277E-08  0.5000000E-15
  1.000000000000000E-004
  CAR 
 unknown system                          
      3.93782647    -12.97529559  301     -1.53340763      1.00000000
    -12.975  0.0000E+00  0.0000E+00
    -12.919  0.0000E+00  0.0000E+00
    -12.863  0.0000E+00  0.0000E+00
    -12.806  0.0000E+00  0.0000E+00
    -12.750  0.0000E+00  0.0000E+00
    -12.693  0.0000E+00  0.0000E+00
    -12.637  0.0000E+00  0.0000E+00
    -12.581  0.0000E+00  0.0000E+00
    -12.524  0.0000E+00  0.0000E+00
    -12.468  0.1506E-13  0.8488E-15
    -12.412  0.7023E-09  0.3959E-10
    -12.355  0.2753E-05  0.1552E-06
    -12.299  0.9494E-03  0.5368E-04
    -12.242  0.3161E-01  0.1836E-02
    -12.186  0.1195E+00  0.8571E-02
    -12.130  0.1337E+00  0.1611E-01
    -12.073  0.5851E+00  0.4909E-01
    -12.017  0.5371E+00  0.7938E-01
    -11.961  0.6075E-01  0.8280E-01
    -11.904  0.7598E-02  0.8323E-01
    -11.848  0.2204E+00  0.9566E-01
    -11.791  0.8202E+00  0.1419E+00
    -11.735  0.5194E+00  0.1712E+00
    -11.679  0.1055E+01  0.2306E+00
    -11.622  0.1180E+01  0.2972E+00
    -11.566  0.1834E+00  0.3075E+00
    -11.509  0.5399E-02  0.3078E+00
    -11.453  0.1095E+00  0.3140E+00
    -11.397  0.6441E+00  0.3503E+00
    -11.340  0.7140E+00  0.3905E+00
    -11.284  0.1766E+01  0.4901E+00
    -11.228  0.1600E+01  0.5803E+00
    -11.171  0.2186E+00  0.5927E+00
    -11.115  0.1230E+00  0.5996E+00
    -11.058  0.3853E+00  0.6213E+00
    -11.002  0.1211E+01  0.6896E+00
    -10.946  0.9837E+00  0.7450E+00
    -10.889  0.1132E+01  0.8089E+00
    -10.833  0.1218E+01  0.8775E+00
    -10.777  0.3234E+00  0.8958E+00
    -10.720  0.7048E+00  0.9355E+00
    -10.664  0.9422E+00  0.9886E+00
    -10.607  0.1982E+01  0.1100E+01
    -10.551  0.1488E+01  0.1184E+01
    -10.495  0.1501E+01  0.1269E+01
    -10.438  0.7470E+00  0.1311E+01
    -10.382  0.4740E-01  0.1314E+01
    -10.326  0.9956E-02  0.1314E+01
    -10.269  0.3837E+00  0.1336E+01
    -10.213  0.1989E+01  0.1448E+01
    -10.156  0.1892E+01  0.1555E+01
    -10.100  0.2405E+01  0.1690E+01
    -10.044  0.2014E+01  0.1804E+01
     -9.987  0.5734E+00  0.1836E+01
     -9.931  0.7328E+00  0.1877E+01
     -9.875  0.3386E+00  0.1896E+01
     -9.818  0.5849E+00  0.1929E+01
     -9.762  0.1298E+01  0.2003E+01
     -9.705  0.2562E+01  0.2147E+01
     -9.649  0.1595E+01  0.2237E+01
     -9.593  0.5314E+00  0.2267E+01
     -9.536  0.8555E+00  0.2315E+01
     -9.480  0.1629E+01  0.2407E+01
     -9.424  0.2573E+01  0.2552E+01
     -9.367  0.1364E+01  0.2629E+01
     -9.311  0.2382E+01  0.2763E+01
     -9.254  0.1934E+01  0.2872E+01
     -9.198  0.2671E+00  0.2887E+01
     -9.142  0.9784E-01  0.2893E+01
     -9.085  0.1338E+01  0.2968E+01
     -9.029  0.2853E+01  0.3129E+01
     -8.973  0.1497E+01  0.3214E+01
     -8.916  0.1245E+01  0.3284E+01
     -8.860  0.6678E+00  0.3321E+01
     -8.803  0.7529E-01  0.3326E+01
     -8.747  0.2186E+00  0.3338E+01
     -8.691  0.1836E+01  0.3441E+01
     -8.634  0.3417E+01  0.3634E+01
     -8.578  0.2870E+01  0.3796E+01
     -8.522  0.3742E+01  0.4007E+01
     -8.465  0.1842E+01  0.4111E+01
     -8.409  0.1369E+01  0.4188E+01
     -8.352  0.1110E+01  0.4250E+01
     -8.296  0.7639E+00  0.4294E+01
     -8.240  0.8383E+00  0.4341E+01
     -8.183  0.2995E+01  0.4510E+01
     -8.127  0.4144E+01  0.4743E+01
     -8.070  0.1240E+01  0.4813E+01
     -8.014  0.6133E-01  0.4817E+01
     -7.958  0.1240E+00  0.4824E+01
     -7.901  0.1057E+01  0.4883E+01
     -7.845  0.1427E+01  0.4964E+01
     -7.789  0.2072E+01  0.5080E+01
     -7.732  0.2369E+01  0.5214E+01
     -7.676  0.8439E+00  0.5262E+01
     -7.619  0.9311E+00  0.5314E+01
     -7.563  0.1549E+01  0.5401E+01
     -7.507  0.4533E+01  0.5657E+01
     -7.450  0.3530E+01  0.5856E+01
     -7.394  0.2510E+01  0.5997E+01
     -7.338  0.1705E+01  0.6094E+01
     -7.281  0.7096E+00  0.6134E+01
     -7.225  0.9925E+00  0.6190E+01
     -7.168  0.2817E+01  0.6348E+01
     -7.112  0.3708E+01  0.6557E+01
     -7.056  0.1704E+01  0.6654E+01
     -6.999  0.2646E+01  0.6803E+01
     -6.943  0.1388E+01  0.6881E+01
     -6.887  0.1220E+00  0.6888E+01
     -6.830  0.3253E+00  0.6906E+01
     -6.774  0.2502E+01  0.7047E+01
     -6.717  0.3219E+01  0.7229E+01
     -6.661  0.2612E+01  0.7376E+01
     -6.605  0.3706E+01  0.7585E+01
     -6.548  0.1806E+01  0.7687E+01
     -6.492  0.1498E+01  0.7771E+01
     -6.436  0.9634E+00  0.7825E+01
     -6.379  0.2281E+01  0.7954E+01
     -6.323  0.2619E+01  0.8102E+01
     -6.266  0.2425E+01  0.8238E+01
     -6.210  0.2195E+01  0.8362E+01
     -6.154  0.1439E+01  0.8443E+01
     -6.097  0.2186E+01  0.8567E+01
     -6.041  0.1480E+01  0.8650E+01
     -5.985  0.2190E+01  0.8773E+01
     -5.928  0.2290E+01  0.8903E+01
     -5.872  0.2899E+01  0.9066E+01
     -5.815  0.1602E+01  0.9156E+01
     -5.759  0.2745E+00  0.9172E+01
     -5.703  0.4164E+00  0.9195E+01
     -5.646  0.2722E+01  0.9349E+01
     -5.590  0.4535E+01  0.9604E+01
     -5.534  0.5053E+01  0.9889E+01
     -5.477  0.6190E+01  0.1024E+02
     -5.421  0.2308E+01  0.1037E+02
     -5.364  0.1903E+00  0.1038E+02
     -5.308  0.4362E+00  0.1040E+02
     -5.252  0.2537E+01  0.1055E+02
     -5.195  0.2261E+01  0.1067E+02
     -5.139  0.2802E+01  0.1083E+02
     -5.083  0.3337E+01  0.1102E+02
     -5.026  0.2442E+01  0.1116E+02
     -4.970  0.2396E+01  0.1129E+02
     -4.913  0.2737E+01  0.1145E+02
     -4.857  0.3564E+01  0.1165E+02
     -4.801  0.2163E+01  0.1177E+02
     -4.744  0.8606E+00  0.1182E+02
     -4.688  0.7035E+00  0.1186E+02
     -4.631  0.4085E+00  0.1188E+02
     -4.575  0.1446E+01  0.1196E+02
     -4.519  0.4764E+01  0.1223E+02
     -4.462  0.3430E+01  0.1242E+02
     -4.406  0.3228E+01  0.1261E+02
     -4.350  0.3000E+01  0.1278E+02
     -4.293  0.2449E+01  0.1291E+02
     -4.237  0.2176E+01  0.1304E+02
     -4.180  0.4201E+01  0.1327E+02
     -4.124  0.5009E+01  0.1356E+02
     -4.068  0.3096E+01  0.1373E+02
     -4.011  0.4497E+01  0.1398E+02
     -3.955  0.3038E+01  0.1416E+02
     -3.899  0.1148E+01  0.1422E+02
     -3.842  0.8068E+00  0.1427E+02
     -3.786  0.3298E+01  0.1445E+02
     -3.729  0.2602E+01  0.1460E+02
     -3.673  0.2960E+01  0.1476E+02
     -3.617  0.4108E+01  0.1500E+02
     -3.560  0.3800E+01  0.1521E+02
     -3.504  0.1374E+01  0.1529E+02
     -3.448  0.1030E+01  0.1535E+02
     -3.391  0.2837E+01  0.1551E+02
     -3.335  0.3970E+01  0.1573E+02
     -3.278  0.3120E+01  0.1591E+02
     -3.222  0.9410E+00  0.1596E+02
     -3.166  0.1839E+01  0.1606E+02
     -3.109  0.2853E+01  0.1622E+02
     -3.053  0.2921E+01  0.1639E+02
     -2.997  0.1353E+01  0.1646E+02
     -2.940  0.3055E+01  0.1664E+02
     -2.884  0.2980E+01  0.1680E+02
     -2.827  0.1172E+01  0.1687E+02
     -2.771  0.2463E+01  0.1701E+02
     -2.715  0.4376E+01  0.1726E+02
     -2.658  0.4032E+01  0.1748E+02
     -2.602  0.3704E+01  0.1769E+02
     -2.546  0.3318E+01  0.1788E+02
     -2.489  0.1044E+01  0.1794E+02
     -2.433  0.1548E+01  0.1803E+02
     -2.376  0.2361E+01  0.1816E+02
     -2.320  0.3621E+01  0.1836E+02
     -2.264  0.5458E+01  0.1867E+02
     -2.207  0.4273E+01  0.1891E+02
     -2.151  0.2522E+01  0.1905E+02
     -2.095  0.3163E+01  0.1923E+02
     -2.038  0.3852E+01  0.1945E+02
     -1.982  0.3676E+01  0.1966E+02
     -1.925  0.1875E+01  0.1976E+02
     -1.869  0.6505E+00  0.1980E+02
     -1.813  0.1154E+01  0.1986E+02
     -1.756  0.3153E+01  0.2004E+02
     -1.700  0.5479E+01  0.2035E+02
     -1.644  0.5803E+01  0.2068E+02
     -1.587  0.3722E+01  0.2089E+02
     -1.531  0.2102E+01  0.2101E+02
     -1.474  0.2152E+01  0.2113E+02
     -1.418  0.1304E+01  0.2120E+02
     -1.362  0.1515E+01  0.2129E+02
     -1.305  0.1964E+01  0.2140E+02
     -1.249  0.2043E+01  0.2151E+02
     -1.192  0.5024E+01  0.2180E+02
     -1.136  0.6601E+01  0.2217E+02
     -1.080  0.3848E+01  0.2238E+02
     -1.023  0.1623E+01  0.2248E+02
     -0.967  0.1680E+01  0.2257E+02
     -0.911  0.3931E+01  0.2279E+02
     -0.854  0.3968E+01  0.2302E+02
     -0.798  0.2119E+01  0.2314E+02
     -0.741  0.1801E+01  0.2324E+02
     -0.685  0.2135E+01  0.2336E+02
     -0.629  0.2961E+01  0.2352E+02
     -0.572  0.3204E+01  0.2370E+02
     -0.516  0.3530E+01  0.2390E+02
     -0.460  0.3645E+01  0.2411E+02
     -0.403  0.3336E+01  0.2430E+02
     -0.347  0.2287E+01  0.2443E+02
     -0.290  0.2199E+01  0.2455E+02
     -0.234  0.3008E+01  0.2472E+02
     -0.178  0.3190E+01  0.2490E+02
     -0.121  0.1856E+01  0.2500E+02
     -0.065  0.1522E+01  0.2509E+02
     -0.009  0.1405E+01  0.2517E+02
      0.048  0.2717E+01  0.2532E+02
      0.104  0.3247E+01  0.2551E+02
      0.161  0.3039E+01  0.2568E+02
      0.217  0.2476E+01  0.2582E+02
      0.273  0.1685E+01  0.2591E+02
      0.330  0.1691E+01  0.2601E+02
      0.386  0.3203E+01  0.2619E+02
      0.442  0.2725E+01  0.2634E+02
      0.499  0.8928E+00  0.2639E+02
      0.555  0.1189E+01  0.2646E+02
      0.612  0.2601E+01  0.2661E+02
      0.668  0.1359E+01  0.2668E+02
      0.724  0.8556E+00  0.2673E+02
      0.781  0.2662E+00  0.2674E+02
      0.837  0.2637E-01  0.2675E+02
      0.893  0.4333E+00  0.2677E+02
      0.950  0.2363E+01  0.2690E+02
      1.006  0.3122E+01  0.2708E+02
      1.063  0.1795E+01  0.2718E+02
      1.119  0.1184E+01  0.2725E+02
      1.175  0.1025E+01  0.2731E+02
      1.232  0.5455E+00  0.2734E+02
      1.288  0.1342E+01  0.2741E+02
      1.344  0.2462E+01  0.2755E+02
      1.401  0.3342E+01  0.2774E+02
      1.457  0.3413E+01  0.2793E+02
      1.514  0.3306E+01  0.2812E+02
      1.570  0.9986E+00  0.2817E+02
      1.626  0.5442E-01  0.2818E+02
      1.683  0.1986E-02  0.2818E+02
      1.739  0.9077E-01  0.2818E+02
      1.795  0.5943E+00  0.2822E+02
      1.852  0.5136E+00  0.2825E+02
      1.908  0.5852E-01  0.2825E+02
      1.965  0.2863E-02  0.2825E+02
      2.021  0.1300E+00  0.2826E+02
      2.077  0.9817E+00  0.2831E+02
      2.134  0.1490E+01  0.2840E+02
      2.190  0.1955E+01  0.2851E+02
      2.247  0.3545E+01  0.2871E+02
      2.303  0.2190E+01  0.2883E+02
      2.359  0.8754E+00  0.2888E+02
      2.416  0.4455E+00  0.2890E+02
      2.472  0.7030E+00  0.2894E+02
      2.528  0.1094E+01  0.2900E+02
      2.585  0.7841E+00  0.2905E+02
      2.641  0.4341E+00  0.2907E+02
      2.698  0.8740E+00  0.2912E+02
      2.754  0.2044E+01  0.2924E+02
      2.810  0.2676E+01  0.2939E+02
      2.867  0.7529E+00  0.2943E+02
      2.923  0.5237E+00  0.2946E+02
      2.979  0.2716E+01  0.2961E+02
      3.036  0.3209E+01  0.2979E+02
      3.092  0.1380E+01  0.2987E+02
      3.149  0.1186E+01  0.2994E+02
      3.205  0.9013E+00  0.2999E+02
      3.261  0.1685E+00  0.3000E+02
      3.318  0.4438E-02  0.3000E+02
      3.374  0.1205E-04  0.3000E+02
      3.430  0.2959E-08  0.3000E+02
      3.487  0.6204E-13  0.3000E+02
      3.543  0.0000E+00  0.3000E+02
      3.600  0.0000E+00  0.3000E+02
      3.656  0.0000E+00  0.3000E+02
      3.712  0.0000E+00  0.3000E+02
      3.769  0.0000E+00  0.3000E+02
      3.825  0.0000E+00  0.3000E+02
      3.881  0.0000E+00  0.3000E+02
      3.938  0.0000E+00  0.3000E+02
