       N       E                     dE             d eps       ncg     rms          rms(c)
DAV:   1     0.940294917132E+02    0.94029E+02   -0.56771E+03  1550   0.807E+02
DAV:   2    -0.217293396985E+02   -0.11576E+03   -0.98163E+02  2175   0.140E+02
DAV:   3    -0.258542218941E+02   -0.41249E+01   -0.40224E+01  1950   0.307E+01
DAV:   4    -0.259985795618E+02   -0.14436E+00   -0.14398E+00  2295   0.715E+00
DAV:   5    -0.260038490798E+02   -0.52695E-02   -0.52678E-02  2485   0.135E+00    0.286E+00
DAV:   6    -0.254328481984E+02    0.57100E+00   -0.17450E+00  1695   0.500E+00    0.161E+00
DAV:   7    -0.253148295481E+02    0.11802E+00   -0.27158E-01  1880   0.284E+00    0.737E-01
DAV:   8    -0.252752373316E+02    0.39592E-01   -0.11172E-01  2020   0.162E+00    0.265E-01
DAV:   9    -0.252685970204E+02    0.66403E-02   -0.21990E-02  1995   0.777E-01    0.161E-01
DAV:  10    -0.252633837544E+02    0.52133E-02   -0.85859E-03  2035   0.446E-01    0.106E-01
DAV:  11    -0.252580763407E+02    0.53074E-02   -0.23552E-03  1840   0.236E-01    0.811E-02
DAV:  12    -0.252495625004E+02    0.85138E-02   -0.58820E-03  1690   0.274E-01    0.570E-02
DAV:  13    -0.252459808446E+02    0.35817E-02   -0.16200E-03  1860   0.169E-01    0.460E-02
DAV:  14    -0.252418913749E+02    0.40895E-02   -0.17802E-03  1570   0.136E-01    0.365E-02
DAV:  15    -0.252388332562E+02    0.30581E-02   -0.88384E-04  1850   0.102E-01    0.310E-02
DAV:  16    -0.252388864296E+02   -0.53173E-04   -0.10117E-03  1580   0.118E-01    0.246E-02
DAV:  17    -0.252382185206E+02    0.66791E-03   -0.52295E-04  1655   0.795E-02    0.205E-02
DAV:  18    -0.252376842139E+02    0.53431E-03   -0.31152E-04  1820   0.599E-02    0.169E-02
DAV:  19    -0.252374874303E+02    0.19678E-03   -0.17411E-04  1750   0.454E-02    0.144E-02
DAV:  20    -0.252371009080E+02    0.38652E-03   -0.86270E-05  1775   0.320E-02    0.120E-02
DAV:  21    -0.252369553448E+02    0.14556E-03   -0.39733E-05  1675   0.272E-02    0.109E-02
DAV:  22    -0.252366058679E+02    0.34948E-03   -0.11636E-04  1525   0.314E-02    0.840E-03
DAV:  23    -0.252367955963E+02   -0.18973E-03   -0.39606E-05  1565   0.224E-02    0.669E-03
DAV:  24    -0.252368052600E+02   -0.96637E-05   -0.20377E-05  1705   0.163E-02    0.580E-03
DAV:  25    -0.252369632306E+02   -0.15797E-03   -0.25275E-05  1570   0.151E-02    0.483E-03
DAV:  26    -0.252370422005E+02   -0.78970E-04   -0.11764E-05  1705   0.119E-02    0.416E-03
DAV:  27    -0.252371238942E+02   -0.81694E-04   -0.46643E-06  1730   0.896E-03    0.282E-03
DAV:  28    -0.252371813604E+02   -0.57466E-04   -0.22607E-06  1420   0.634E-03    0.226E-03
DAV:  29    -0.252372425459E+02   -0.61185E-04   -0.43263E-06  1365   0.596E-03    0.157E-03
DAV:  30    -0.252372743669E+02   -0.31821E-04   -0.94005E-07  1220   0.408E-03    0.113E-03
DAV:  31    -0.252373066563E+02   -0.32289E-04   -0.12079E-06  1200   0.332E-03    0.966E-04
DAV:  32    -0.252373209343E+02   -0.14278E-04   -0.10389E-06  1235   0.393E-03    0.706E-04
DAV:  33    -0.252373230542E+02   -0.21198E-05   -0.20151E-07  1135   0.211E-03    0.647E-04
DAV:  34    -0.252373218426E+02    0.12115E-05   -0.24413E-07  1090   0.171E-03    0.624E-04
DAV:  35    -0.252373190548E+02    0.27879E-05   -0.10750E-06  1075   0.471E-03    0.110E-03
DAV:  36    -0.252373165533E+02    0.25014E-05   -0.13466E-06  1110   0.582E-03    0.729E-04
DAV:  37    -0.252373242873E+02   -0.77340E-05   -0.21825E-07  1075   0.237E-03    0.507E-04
DAV:  38    -0.252373374252E+02   -0.13138E-04   -0.47854E-07  1140   0.219E-03    0.307E-04
DAV:  39    -0.252373443211E+02   -0.68960E-05   -0.13350E-07  1130   0.143E-03    0.211E-04
DAV:  40    -0.252373470351E+02   -0.27140E-05   -0.46154E-08  1035   0.105E-03    0.121E-04
DAV:  41    -0.252373485285E+02   -0.14934E-05   -0.18906E-08  1065   0.610E-04    0.635E-05
DAV:  42    -0.252373487870E+02   -0.25849E-06   -0.37970E-09   900   0.356E-04
   1 F= -.25237349E+02 E0= -.25235950E+02  d E =-.279718E-02
