       N       E                     dE             d eps       ncg     rms          rms(c)
DAV:   1     0.504098268864E+03    0.50410E+03   -0.44329E+04  2696   0.135E+03
DAV:   2    -0.102592985404E+03   -0.60669E+03   -0.57747E+03  3496   0.259E+02
DAV:   3    -0.157471353119E+03   -0.54878E+02   -0.54611E+02  3144   0.852E+01
DAV:   4    -0.158147093879E+03   -0.67574E+00   -0.67476E+00  3152   0.103E+01
DAV:   5    -0.158157086975E+03   -0.99931E-02   -0.99905E-02  3192   0.123E+00    0.236E+01
DAV:   6    -0.141235256668E+03    0.16922E+02   -0.93695E+01  3176   0.334E+01    0.794E+00
DAV:   7    -0.141245908882E+03   -0.10652E-01   -0.34323E+00  3008   0.650E+00    0.497E+00
DAV:   8    -0.141092239226E+03    0.15367E+00   -0.79809E-01  3120   0.459E+00    0.131E+00
DAV:   9    -0.141048392475E+03    0.43847E-01   -0.16841E-01  3080   0.191E+00    0.658E-01
DAV:  10    -0.141041929045E+03    0.64634E-02   -0.69341E-02  3032   0.947E-01    0.282E-01
DAV:  11    -0.141034714137E+03    0.72149E-02   -0.12088E-02  3176   0.680E-01    0.205E-01
DAV:  12    -0.141030272639E+03    0.44415E-02   -0.48734E-03  3472   0.448E-01    0.161E-01
DAV:  13    -0.141020873046E+03    0.93996E-02   -0.66977E-03  4272   0.876E-01    0.909E-02
DAV:  14    -0.141016767365E+03    0.41057E-02   -0.79623E-03  3416   0.614E-01    0.119E-01
DAV:  15    -0.141006964817E+03    0.98025E-02   -0.13268E-02  4128   0.148E+00    0.179E-01
DAV:  16    -0.141002925097E+03    0.40397E-02   -0.10098E-02  3248   0.970E-01    0.145E-01
DAV:  17    -0.141000840112E+03    0.20850E-02   -0.16179E-02  3344   0.926E-01    0.152E-01
DAV:  18    -0.140999186107E+03    0.16540E-02   -0.50050E-03  3624   0.764E-01    0.120E-01
DAV:  19    -0.140998441936E+03    0.74417E-03   -0.49349E-03  3376   0.573E-01    0.359E-02
DAV:  20    -0.140998274558E+03    0.16738E-03   -0.19570E-03  3448   0.377E-01    0.389E-02
DAV:  21    -0.140998152575E+03    0.12198E-03   -0.48445E-04  3888   0.284E-01    0.292E-02
DAV:  22    -0.140998170955E+03   -0.18381E-04   -0.59851E-04  2864   0.165E-01    0.196E-02
DAV:  23    -0.140998185454E+03   -0.14499E-04   -0.19921E-04  2800   0.536E-02    0.215E-02
DAV:  24    -0.140998184472E+03    0.98226E-06   -0.88163E-06  1736   0.124E-02
   1 F= -.14099818E+03 E0= -.14099452E+03  d E =-.140998E+03
       N       E                     dE             d eps       ncg     rms          rms(c)
DAV:   1    -0.140995741235E+03    0.24442E-02   -0.19120E+00  2688   0.532E+00    0.290E-01
DAV:   2    -0.141001211681E+03   -0.54704E-02   -0.78383E-02  2960   0.883E-01    0.237E-01
DAV:   3    -0.141000023468E+03    0.11882E-02   -0.12312E-03  3104   0.187E-01    0.160E-01
DAV:   4    -0.140998814182E+03    0.12093E-02   -0.36761E-03  3080   0.306E-01    0.469E-02
DAV:   5    -0.140998728396E+03    0.85786E-04   -0.12623E-03  3000   0.137E-01    0.315E-02
DAV:   6    -0.140998535220E+03    0.19318E-03   -0.14612E-04  3256   0.771E-02    0.283E-02
DAV:   7    -0.140998434526E+03    0.10069E-03   -0.89626E-05  3152   0.645E-02    0.170E-02
DAV:   8    -0.140998123515E+03    0.31101E-03   -0.18803E-04  3952   0.169E-01    0.116E-02
DAV:   9    -0.140997997379E+03    0.12614E-03   -0.19130E-04  3104   0.117E-01    0.145E-02
DAV:  10    -0.140997846845E+03    0.15053E-03   -0.13573E-04  3904   0.182E-01    0.198E-02
DAV:  11    -0.140997764130E+03    0.82715E-04   -0.20926E-04  3632   0.165E-01    0.125E-02
DAV:  12    -0.140997756855E+03    0.72752E-05   -0.29073E-04  2992   0.106E-01    0.164E-02
DAV:  13    -0.140997719287E+03    0.37567E-04   -0.57540E-05  3144   0.111E-01    0.871E-03
DAV:  14    -0.140997705234E+03    0.14053E-04   -0.49735E-05  2616   0.836E-02    0.816E-03
DAV:  15    -0.140997705101E+03    0.13298E-06   -0.58236E-05  2712   0.438E-02
   2 F= -.14099771E+03 E0= -.14099404E+03  d E =0.479370E-03
       N       E                     dE             d eps       ncg     rms          rms(c)
DAV:   1    -0.141002990151E+03   -0.52849E-02   -0.48609E-01  2768   0.272E+00    0.147E-01
DAV:   2    -0.141004257055E+03   -0.12669E-02   -0.19155E-02  2976   0.455E-01    0.119E-01
DAV:   3    -0.141003935079E+03    0.32198E-03   -0.34835E-04  3160   0.103E-01    0.783E-02
DAV:   4    -0.141003623777E+03    0.31130E-03   -0.75596E-04  3080   0.144E-01    0.218E-02
DAV:   5    -0.141003587261E+03    0.36517E-04   -0.28943E-04  3032   0.732E-02    0.142E-02
DAV:   6    -0.141003536173E+03    0.51088E-04   -0.28091E-05  2536   0.423E-02    0.112E-02
DAV:   7    -0.141003492843E+03    0.43330E-04   -0.34496E-05  2624   0.540E-02    0.776E-03
DAV:   8    -0.141003432260E+03    0.60583E-04   -0.42938E-05  2864   0.759E-02    0.631E-03
DAV:   9    -0.141003389462E+03    0.42798E-04   -0.38189E-05  2720   0.775E-02    0.679E-03
DAV:  10    -0.141003352353E+03    0.37109E-04   -0.47083E-05  3000   0.104E-01    0.567E-03
DAV:  11    -0.141003343809E+03    0.85435E-05   -0.87340E-05  2800   0.721E-02
   3 F= -.14100334E+03 E0= -.14099964E+03  d E =-.515934E-02
       N       E                     dE             d eps       ncg     rms          rms(c)
DAV:   1    -0.141004463464E+03   -0.11111E-02   -0.17199E-01  2752   0.164E+00    0.694E-02
DAV:   2    -0.141004807156E+03   -0.34369E-03   -0.42291E-03  3016   0.221E-01    0.397E-02
DAV:   3    -0.141004771427E+03    0.35728E-04   -0.86164E-05  3072   0.472E-02    0.248E-02
DAV:   4    -0.141004755657E+03    0.15770E-04   -0.32576E-05  2632   0.278E-02    0.122E-02
DAV:   5    -0.141004746567E+03    0.90904E-05   -0.20379E-05  2368   0.270E-02    0.438E-03
DAV:   6    -0.141004743326E+03    0.32410E-05   -0.11541E-05  1800   0.182E-02
   4 F= -.14100474E+03 E0= -.14100100E+03  d E =-.139952E-02
       N       E                     dE             d eps       ncg     rms          rms(c)
DAV:   1    -0.141004040815E+03    0.70575E-03   -0.13967E+00  2688   0.467E+00    0.194E-01
DAV:   2    -0.141006816743E+03   -0.27759E-02   -0.34202E-02  3008   0.624E-01    0.114E-01
DAV:   3    -0.141006506879E+03    0.30986E-03   -0.64755E-04  3080   0.134E-01    0.722E-02
DAV:   4    -0.141006367050E+03    0.13983E-03   -0.29902E-04  3096   0.818E-02    0.352E-02
DAV:   5    -0.141006291657E+03    0.75394E-04   -0.16960E-04  3192   0.794E-02    0.126E-02
DAV:   6    -0.141006266087E+03    0.25570E-04   -0.89931E-05  3056   0.496E-02    0.935E-03
DAV:   7    -0.141006256134E+03    0.99529E-05   -0.20647E-05  2272   0.188E-02
   5 F= -.14100626E+03 E0= -.14100247E+03  d E =-.291232E-02
       N       E                     dE             d eps       ncg     rms          rms(c)
DAV:   1    -0.141006923894E+03   -0.65781E-03   -0.12310E-01  2784   0.138E+00    0.537E-02
DAV:   2    -0.141007182610E+03   -0.25872E-03   -0.30440E-03  2976   0.195E-01    0.308E-02
DAV:   3    -0.141007157455E+03    0.25155E-04   -0.38972E-05  2960   0.320E-02    0.213E-02
DAV:   4    -0.141007131860E+03    0.25595E-04   -0.44603E-05  2784   0.382E-02    0.838E-03
DAV:   5    -0.141007121593E+03    0.10267E-04   -0.15580E-05  2296   0.265E-02    0.553E-03
DAV:   6    -0.141007104475E+03    0.17119E-04   -0.10210E-05  2000   0.359E-02    0.398E-03
DAV:   7    -0.141007087713E+03    0.16761E-04   -0.66047E-06  1816   0.371E-02    0.362E-03
DAV:   8    -0.141007063262E+03    0.24451E-04   -0.16667E-05  2232   0.612E-02    0.443E-03
DAV:   9    -0.141007041104E+03    0.22158E-04   -0.33055E-05  2720   0.815E-02    0.461E-03
DAV:  10    -0.141007033070E+03    0.80335E-05   -0.47199E-05  2840   0.792E-02
   6 F= -.14100703E+03 E0= -.14100323E+03  d E =-.776936E-03
       N       E                     dE             d eps       ncg     rms          rms(c)
DAV:   1    -0.141006407716E+03    0.63339E-03   -0.11122E+00  2704   0.410E+00    0.166E-01
DAV:   2    -0.141008825729E+03   -0.24180E-02   -0.27784E-02  2952   0.584E-01    0.937E-02
DAV:   3    -0.141008663833E+03    0.16190E-03   -0.36403E-04  3136   0.947E-02    0.641E-02
DAV:   4    -0.141008578230E+03    0.85603E-04   -0.43934E-04  3096   0.957E-02    0.254E-02
DAV:   5    -0.141008571948E+03    0.62820E-05   -0.96954E-05  2928   0.464E-02    0.154E-02
DAV:   6    -0.141008566608E+03    0.53399E-05   -0.59607E-05  2752   0.441E-02
   7 F= -.14100857E+03 E0= -.14100481E+03  d E =-.231047E-02
       N       E                     dE             d eps       ncg     rms          rms(c)
DAV:   1    -0.141009905711E+03   -0.13338E-02   -0.57907E-02  2712   0.105E+00    0.429E-02
DAV:   2    -0.141009986436E+03   -0.80726E-04   -0.13937E-03  3024   0.159E-01    0.295E-02
DAV:   3    -0.141009970707E+03    0.15729E-04   -0.55414E-05  2952   0.339E-02    0.219E-02
DAV:   4    -0.141009951498E+03    0.19210E-04   -0.77049E-05  2992   0.385E-02    0.129E-02
DAV:   5    -0.141009943694E+03    0.78039E-05   -0.80957E-06  1784   0.241E-02    0.119E-02
DAV:   6    -0.141009935578E+03    0.81155E-05   -0.42154E-05  2592   0.401E-02
   8 F= -.14100994E+03 E0= -.14100622E+03  d E =-.136897E-02
       N       E                     dE             d eps       ncg     rms          rms(c)
DAV:   1    -0.141010357001E+03   -0.41331E-03   -0.66841E-02  2704   0.113E+00    0.465E-02
DAV:   2    -0.141010431903E+03   -0.74903E-04   -0.17110E-03  3040   0.176E-01    0.313E-02
DAV:   3    -0.141010399606E+03    0.32298E-04   -0.74673E-05  3008   0.415E-02    0.240E-02
DAV:   4    -0.141010339596E+03    0.60010E-04   -0.11147E-04  3096   0.596E-02    0.167E-02
DAV:   5    -0.141010306220E+03    0.33376E-04   -0.27270E-05  2512   0.418E-02    0.179E-02
DAV:   6    -0.141010273822E+03    0.32398E-04   -0.66201E-05  2880   0.508E-02    0.720E-03
DAV:   7    -0.141010247706E+03    0.26115E-04   -0.18141E-05  2256   0.407E-02    0.685E-03
DAV:   8    -0.141010205245E+03    0.42461E-04   -0.26656E-05  2464   0.732E-02    0.512E-03
DAV:   9    -0.141010176468E+03    0.28777E-04   -0.45371E-05  2808   0.776E-02    0.574E-03
DAV:  10    -0.141010159008E+03    0.17460E-04   -0.32488E-05  2496   0.734E-02    0.404E-03
DAV:  11    -0.141010149696E+03    0.93121E-05   -0.28985E-05  2440   0.647E-02
   9 F= -.14101015E+03 E0= -.14100649E+03  d E =-.158309E-02
       N       E                     dE             d eps       ncg     rms          rms(c)
DAV:   1    -0.141010216142E+03   -0.57134E-04   -0.58160E-03  2864   0.341E-01    0.162E-02
DAV:   2    -0.141010230256E+03   -0.14114E-04   -0.25896E-04  2984   0.682E-02    0.146E-02
DAV:   3    -0.141010226244E+03    0.40126E-05   -0.11033E-05  1688   0.162E-02    0.110E-02
DAV:   4    -0.141010221334E+03    0.49093E-05   -0.22202E-05  2232   0.196E-02    0.515E-03
DAV:   5    -0.141010219125E+03    0.22098E-05   -0.29936E-06  1720   0.129E-02    0.634E-03
DAV:   6    -0.141010216455E+03    0.26693E-05   -0.48695E-06  1776   0.200E-02
  10 F= -.14101022E+03 E0= -.14100655E+03  d E =-.164985E-02
       N       E                     dE             d eps       ncg     rms          rms(c)
DAV:   1    -0.141010765652E+03   -0.54653E-03   -0.13274E-01  2720   0.159E+00    0.507E-02
DAV:   2    -0.141011043807E+03   -0.27815E-03   -0.31082E-03  2968   0.225E-01    0.293E-02
DAV:   3    -0.141011026690E+03    0.17116E-04   -0.35410E-05  2784   0.322E-02    0.207E-02
DAV:   4    -0.141011015995E+03    0.10695E-04   -0.80088E-05  2944   0.518E-02    0.898E-03
DAV:   5    -0.141011016953E+03   -0.95824E-06   -0.21674E-05  2160   0.202E-02    0.898E-03
DAV:   6    -0.141011015969E+03    0.98443E-06   -0.35609E-06  1608   0.836E-03
  11 F= -.14101102E+03 E0= -.14100736E+03  d E =-.799514E-03
       N       E                     dE             d eps       ncg     rms          rms(c)
DAV:   1    -0.141010011229E+03    0.10057E-02   -0.11957E+00  2696   0.478E+00    0.153E-01
DAV:   2    -0.141012572283E+03   -0.25611E-02   -0.28513E-02  2960   0.681E-01    0.910E-02
DAV:   3    -0.141012405622E+03    0.16666E-03   -0.33839E-04  3240   0.103E-01    0.633E-02
DAV:   4    -0.141012300314E+03    0.10531E-03   -0.77724E-04  3008   0.163E-01    0.290E-02
DAV:   5    -0.141012304088E+03   -0.37743E-05   -0.22438E-04  2936   0.655E-02    0.290E-02
DAV:   6    -0.141012295723E+03    0.83653E-05   -0.28922E-05  2264   0.219E-02
  12 F= -.14101230E+03 E0= -.14100867E+03  d E =-.207927E-02
       N       E                     dE             d eps       ncg     rms          rms(c)
DAV:   1    -0.141012162595E+03    0.14149E-03   -0.92534E-02  2712   0.133E+00    0.470E-02
DAV:   2    -0.141012353986E+03   -0.19139E-03   -0.23331E-03  2952   0.199E-01    0.269E-02
DAV:   3    -0.141012335663E+03    0.18322E-04   -0.48578E-05  2888   0.400E-02    0.191E-02
DAV:   4    -0.141012314650E+03    0.21014E-04   -0.62262E-05  2904   0.546E-02    0.104E-02
DAV:   5    -0.141012308170E+03    0.64796E-05   -0.27223E-05  2232   0.326E-02    0.117E-02
DAV:   6    -0.141012305327E+03    0.28437E-05   -0.98401E-06  1664   0.143E-02
  13 F= -.14101231E+03 E0= -.14100870E+03  d E =-.208887E-02
       N       E                     dE             d eps       ncg     rms          rms(c)
DAV:   1    -0.141012952944E+03   -0.64477E-03   -0.43411E-01  2720   0.291E+00    0.916E-02
DAV:   2    -0.141013871131E+03   -0.91819E-03   -0.10142E-02  2968   0.411E-01    0.498E-02
DAV:   3    -0.141013810963E+03    0.60168E-04   -0.12250E-04  3256   0.596E-02    0.348E-02
DAV:   4    -0.141013765669E+03    0.45294E-04   -0.15088E-04  3088   0.777E-02    0.130E-02
DAV:   5    -0.141013764007E+03    0.16626E-05   -0.65992E-05  2784   0.409E-02    0.130E-02
DAV:   6    -0.141013760039E+03    0.39678E-05   -0.26487E-05  2264   0.248E-02
  14 F= -.14101376E+03 E0= -.14101019E+03  d E =-.145471E-02
       N       E                     dE             d eps       ncg     rms          rms(c)
DAV:   1    -0.141008561515E+03    0.52025E-02   -0.39047E+00  2744   0.874E+00    0.266E-01
DAV:   2    -0.141016760612E+03   -0.81991E-02   -0.90089E-02  2976   0.122E+00    0.152E-01
DAV:   3    -0.141016144099E+03    0.61651E-03   -0.92094E-04  3248   0.169E-01    0.105E-01
DAV:   4    -0.141015582432E+03    0.56167E-03   -0.14104E-03  3176   0.252E-01    0.351E-02
DAV:   5    -0.141015530414E+03    0.52018E-04   -0.69348E-04  3040   0.124E-01    0.341E-02
DAV:   6    -0.141015456927E+03    0.73487E-04   -0.17441E-04  2992   0.623E-02    0.152E-02
DAV:   7    -0.141015334212E+03    0.12272E-03   -0.55864E-05  3160   0.750E-02    0.178E-02
DAV:   8    -0.141015277614E+03    0.56598E-04   -0.47452E-05  2696   0.494E-02    0.157E-02
DAV:   9    -0.141015143724E+03    0.13389E-03   -0.16862E-04  3832   0.137E-01    0.157E-02
DAV:  10    -0.141015047006E+03    0.96718E-04   -0.12003E-04  3408   0.116E-01    0.177E-02
DAV:  11    -0.141014986497E+03    0.60509E-04   -0.10915E-04  3120   0.981E-02    0.103E-02
DAV:  12    -0.141014918624E+03    0.67872E-04   -0.78525E-05  3392   0.158E-01    0.114E-02
DAV:  13    -0.141014914490E+03    0.41345E-05   -0.13547E-04  2904   0.633E-02    0.995E-03
DAV:  14    -0.141014903171E+03    0.11319E-04   -0.81140E-05  2728   0.565E-02    0.133E-02
DAV:  15    -0.141014883696E+03    0.19475E-04   -0.27558E-05  2528   0.899E-02    0.790E-03
DAV:  16    -0.141014879787E+03    0.39093E-05   -0.39994E-05  2528   0.599E-02
  15 F= -.14101488E+03 E0= -.14101141E+03  d E =-.257446E-02
       N       E                     dE             d eps       ncg     rms          rms(c)
DAV:   1    -0.141014617689E+03    0.26601E-03   -0.28011E-01  2720   0.234E+00    0.711E-02
DAV:   2    -0.141015209952E+03   -0.59226E-03   -0.65023E-03  2944   0.327E-01    0.408E-02
DAV:   3    -0.141015166832E+03    0.43119E-04   -0.59922E-05  3128   0.435E-02    0.287E-02
DAV:   4    -0.141015125447E+03    0.41385E-04   -0.13391E-04  3096   0.754E-02    0.983E-03
DAV:   5    -0.141015124512E+03    0.93511E-06   -0.55464E-05  2720   0.325E-02    0.110E-02
DAV:   6    -0.141015121216E+03    0.32957E-05   -0.74785E-06  1672   0.123E-02
  16 F= -.14101512E+03 E0= -.14101161E+03  d E =-.281589E-02
       N       E                     dE             d eps       ncg     rms          rms(c)
DAV:   1    -0.141015691761E+03   -0.56725E-03   -0.20304E-01  2704   0.199E+00    0.622E-02
DAV:   2    -0.141016069974E+03   -0.37821E-03   -0.42900E-03  3040   0.265E-01    0.344E-02
DAV:   3    -0.141016045516E+03    0.24458E-04   -0.72722E-05  3120   0.401E-02    0.236E-02
DAV:   4    -0.141016028057E+03    0.17459E-04   -0.56325E-05  2960   0.439E-02    0.108E-02
DAV:   5    -0.141016024378E+03    0.36792E-05   -0.22325E-05  2192   0.249E-02    0.893E-03
DAV:   6    -0.141016021205E+03    0.31723E-05   -0.10530E-05  1736   0.193E-02
  17 F= -.14101602E+03 E0= -.14101257E+03  d E =-.899989E-03
       N       E                     dE             d eps       ncg     rms          rms(c)
DAV:   1    -0.141014983281E+03    0.10411E-02   -0.10920E+00  2704   0.461E+00    0.139E-01
DAV:   2    -0.141017067776E+03   -0.20845E-02   -0.22878E-02  3024   0.609E-01    0.823E-02
DAV:   3    -0.141016934452E+03    0.13332E-03   -0.29949E-04  3240   0.878E-02    0.555E-02
DAV:   4    -0.141016845838E+03    0.88614E-04   -0.37210E-04  3288   0.117E-01    0.219E-02
DAV:   5    -0.141016847967E+03   -0.21293E-05   -0.14405E-04  3008   0.526E-02    0.209E-02
DAV:   6    -0.141016840422E+03    0.75450E-05   -0.46581E-05  2512   0.318E-02
  18 F= -.14101684E+03 E0= -.14101353E+03  d E =-.171921E-02
       N       E                     dE             d eps       ncg     rms          rms(c)
DAV:   1    -0.141017534824E+03   -0.68686E-03   -0.39187E-01  2688   0.279E+00    0.879E-02
DAV:   2    -0.141018339812E+03   -0.80499E-03   -0.90395E-03  2960   0.385E-01    0.458E-02
DAV:   3    -0.141018297837E+03    0.41975E-04   -0.12125E-04  3232   0.507E-02    0.319E-02
DAV:   4    -0.141018268958E+03    0.28879E-04   -0.12479E-04  3016   0.566E-02    0.134E-02
DAV:   5    -0.141018267472E+03    0.14855E-05   -0.37030E-05  2528   0.301E-02    0.108E-02
DAV:   6    -0.141018264862E+03    0.26100E-05   -0.17424E-05  1752   0.221E-02
  19 F= -.14101826E+03 E0= -.14101500E+03  d E =-.142444E-02
       N       E                     dE             d eps       ncg     rms          rms(c)
DAV:   1    -0.141013625163E+03    0.46423E-02   -0.35284E+00  2688   0.837E+00    0.260E-01
DAV:   2    -0.141020883123E+03   -0.72580E-02   -0.81417E-02  2960   0.115E+00    0.139E-01
DAV:   3    -0.141020513015E+03    0.37011E-03   -0.11613E-03  3240   0.153E-01    0.962E-02
DAV:   4    -0.141020270706E+03    0.24231E-03   -0.95940E-04  3080   0.150E-01    0.395E-02
DAV:   5    -0.141020253723E+03    0.16983E-04   -0.26708E-04  3144   0.807E-02    0.280E-02
DAV:   6    -0.141020237955E+03    0.15768E-04   -0.15069E-04  3064   0.660E-02    0.138E-02
DAV:   7    -0.141020230638E+03    0.73172E-05   -0.25126E-05  2376   0.258E-02
  20 F= -.14102023E+03 E0= -.14101712E+03  d E =-.339022E-02
       N       E                     dE             d eps       ncg     rms          rms(c)
DAV:   1    -0.141020831183E+03   -0.59323E-03   -0.37285E-01  2696   0.274E+00    0.862E-02
DAV:   2    -0.141021599622E+03   -0.76844E-03   -0.86543E-03  2992   0.386E-01    0.445E-02
DAV:   3    -0.141021559958E+03    0.39665E-04   -0.15720E-04  3280   0.586E-02    0.311E-02
DAV:   4    -0.141021527928E+03    0.32029E-04   -0.84307E-05  2968   0.451E-02    0.141E-02
DAV:   5    -0.141021515111E+03    0.12817E-04   -0.21630E-05  2216   0.389E-02    0.103E-02
DAV:   6    -0.141021503749E+03    0.11362E-04   -0.24285E-05  2152   0.436E-02    0.600E-03
DAV:   7    -0.141021498883E+03    0.48665E-05   -0.21080E-05  1992   0.271E-02
  21 F= -.14102150E+03 E0= -.14101845E+03  d E =-.126825E-02
       N       E                     dE             d eps       ncg     rms          rms(c)
DAV:   1    -0.141016939688E+03    0.45641E-02   -0.33511E+00  2688   0.821E+00    0.254E-01
DAV:   2    -0.141023856686E+03   -0.69170E-02   -0.77653E-02  2976   0.116E+00    0.136E-01
DAV:   3    -0.141023498678E+03    0.35801E-03   -0.13971E-03  3264   0.177E-01    0.960E-02
DAV:   4    -0.141023224920E+03    0.27376E-03   -0.76694E-04  3008   0.134E-01    0.427E-02
DAV:   5    -0.141023138648E+03    0.86272E-04   -0.23087E-04  3248   0.117E-01    0.294E-02
DAV:   6    -0.141023074583E+03    0.64065E-04   -0.28199E-04  3904   0.141E-01    0.167E-02
DAV:   7    -0.141023068534E+03    0.60490E-05   -0.15098E-04  2816   0.558E-02    0.211E-02
DAV:   8    -0.141023037723E+03    0.30811E-04   -0.26877E-05  2344   0.321E-02    0.909E-03
DAV:   9    -0.141022982110E+03    0.55613E-04   -0.80677E-05  2792   0.976E-02    0.171E-02
DAV:  10    -0.141022963772E+03    0.18338E-04   -0.41644E-05  2616   0.543E-02    0.203E-02
DAV:  11    -0.141022931688E+03    0.32084E-04   -0.44263E-05  2784   0.824E-02    0.882E-03
DAV:  12    -0.141022898327E+03    0.33361E-04   -0.58818E-05  3104   0.128E-01    0.622E-03
DAV:  13    -0.141022891604E+03    0.67232E-05   -0.77653E-05  2600   0.582E-02
  22 F= -.14102289E+03 E0= -.14102003E+03  d E =-.266097E-02
       N       E                     dE             d eps       ncg     rms          rms(c)
DAV:   1    -0.141023105359E+03   -0.20703E-03   -0.27437E-01  2784   0.233E+00    0.684E-02
DAV:   2    -0.141023665610E+03   -0.56025E-03   -0.60667E-03  3000   0.320E-01    0.369E-02
DAV:   3    -0.141023638124E+03    0.27486E-04   -0.75636E-05  3144   0.381E-02    0.249E-02
DAV:   4    -0.141023618207E+03    0.19918E-04   -0.56706E-05  2992   0.477E-02    0.927E-03
DAV:   5    -0.141023618545E+03   -0.33806E-06   -0.29933E-05  2320   0.259E-02    0.755E-03
DAV:   6    -0.141023617480E+03    0.10642E-05   -0.57646E-06  1680   0.112E-02
  23 F= -.14102362E+03 E0= -.14102081E+03  d E =-.725877E-03
       N       E                     dE             d eps       ncg     rms          rms(c)
DAV:   1    -0.141020365534E+03    0.32530E-02   -0.24708E+00  2728   0.700E+00    0.203E-01
DAV:   2    -0.141025466681E+03   -0.51011E-02   -0.54532E-02  2968   0.956E-01    0.113E-01
DAV:   3    -0.141025205175E+03    0.26151E-03   -0.57774E-04  3272   0.112E-01    0.761E-02
DAV:   4    -0.141025007741E+03    0.19743E-03   -0.66331E-04  3144   0.164E-01    0.234E-02
DAV:   5    -0.141025022223E+03   -0.14482E-04   -0.31259E-04  2984   0.754E-02    0.234E-02
DAV:   6    -0.141025011953E+03    0.10270E-04   -0.32334E-05  2376   0.243E-02    0.124E-02
DAV:   7    -0.141025000399E+03    0.11555E-04   -0.20220E-05  2136   0.253E-02    0.656E-03
DAV:   8    -0.141024993867E+03    0.65312E-05   -0.42159E-06  1672   0.208E-02
  24 F= -.14102499E+03 E0= -.14102233E+03  d E =-.210226E-02
       N       E                     dE             d eps       ncg     rms          rms(c)
DAV:   1    -0.141005404319E+03    0.19596E-01   -0.98808E+00  2736   0.140E+01    0.405E-01
DAV:   2    -0.141025920897E+03   -0.20517E-01   -0.21965E-01  2968   0.191E+00    0.232E-01
DAV:   3    -0.141024814826E+03    0.11061E-02   -0.23812E-03  3272   0.224E-01    0.155E-01
DAV:   4    -0.141023962136E+03    0.85269E-03   -0.24195E-03  3144   0.314E-01    0.479E-02
DAV:   5    -0.141023987851E+03   -0.25715E-04   -0.12347E-03  3000   0.157E-01    0.415E-02
DAV:   6    -0.141023938300E+03    0.49551E-04   -0.14894E-04  2960   0.552E-02    0.208E-02
DAV:   7    -0.141023878207E+03    0.60093E-04   -0.47910E-05  2720   0.543E-02    0.115E-02
DAV:   8    -0.141023834103E+03    0.44104E-04   -0.17617E-05  2128   0.524E-02    0.791E-03
DAV:   9    -0.141023743114E+03    0.90989E-04   -0.37936E-05  2720   0.114E-01    0.872E-03
DAV:  10    -0.141023647267E+03    0.95847E-04   -0.83031E-05  3304   0.140E-01    0.105E-02
DAV:  11    -0.141023496055E+03    0.15121E-03   -0.27615E-04  3696   0.327E-01    0.110E-02
DAV:  12    -0.141023502873E+03   -0.68181E-05   -0.39275E-04  3048   0.161E-01    0.112E-02
DAV:  13    -0.141023519869E+03   -0.16996E-04   -0.24308E-04  2760   0.560E-02    0.157E-02
DAV:  14    -0.141023520374E+03   -0.50545E-06   -0.72629E-06  1664   0.100E-02
  25 F= -.14102352E+03 E0= -.14102109E+03  d E =-.628771E-03
       N       E                     dE             d eps       ncg     rms          rms(c)
DAV:   1    -0.141015553459E+03    0.79664E-02   -0.51678E+00  2720   0.101E+01    0.298E-01
DAV:   2    -0.141026201815E+03   -0.10648E-01   -0.11460E-01  2952   0.139E+00    0.163E-01
DAV:   3    -0.141025641430E+03    0.56038E-03   -0.11992E-03  3280   0.167E-01    0.112E-01
DAV:   4    -0.141025212451E+03    0.42898E-03   -0.15828E-03  3184   0.259E-01    0.349E-02
DAV:   5    -0.141025253870E+03   -0.41419E-04   -0.76785E-04  3016   0.118E-01    0.411E-02
DAV:   6    -0.141025234270E+03    0.19601E-04   -0.59341E-05  2792   0.325E-02    0.280E-02
DAV:   7    -0.141025209504E+03    0.24766E-04   -0.55017E-05  2800   0.290E-02    0.128E-02
DAV:   8    -0.141025189899E+03    0.19604E-04   -0.37804E-05  2552   0.426E-02    0.133E-02
DAV:   9    -0.141025178437E+03    0.11462E-04   -0.25905E-05  2248   0.410E-02    0.149E-02
DAV:  10    -0.141025161693E+03    0.16744E-04   -0.62269E-05  2792   0.666E-02    0.113E-02
DAV:  11    -0.141025153590E+03    0.81035E-05   -0.34153E-05  2584   0.402E-02
  26 F= -.14102515E+03 E0= -.14102255E+03  d E =-.226199E-02
       N       E                     dE             d eps       ncg     rms          rms(c)
DAV:   1    -0.141025321327E+03   -0.15963E-03   -0.34651E-01  2736   0.264E+00    0.803E-02
DAV:   2    -0.141026040399E+03   -0.71907E-03   -0.80380E-03  2968   0.370E-01    0.443E-02
DAV:   3    -0.141025995748E+03    0.44651E-04   -0.11118E-04  3216   0.521E-02    0.307E-02
DAV:   4    -0.141025961808E+03    0.33941E-04   -0.11680E-04  3088   0.615E-02    0.121E-02
DAV:   5    -0.141025959726E+03    0.20819E-05   -0.47383E-05  2712   0.361E-02    0.117E-02
DAV:   6    -0.141025958419E+03    0.13071E-05   -0.11639E-05  1656   0.152E-02
  27 F= -.14102596E+03 E0= -.14102339E+03  d E =-.804829E-03
       N       E                     dE             d eps       ncg     rms          rms(c)
DAV:   1    -0.141024172298E+03    0.17874E-02   -0.12725E+00  2736   0.506E+00    0.153E-01
DAV:   2    -0.141026818301E+03   -0.26460E-02   -0.29546E-02  2968   0.709E-01    0.862E-02
DAV:   3    -0.141026647255E+03    0.17105E-03   -0.40395E-04  3248   0.104E-01    0.608E-02
DAV:   4    -0.141026508748E+03    0.13851E-03   -0.42390E-04  3152   0.130E-01    0.241E-02
DAV:   5    -0.141026498657E+03    0.10092E-04   -0.22844E-04  3080   0.821E-02    0.236E-02
DAV:   6    -0.141026494660E+03    0.39968E-05   -0.56209E-05  2704   0.312E-02
  28 F= -.14102649E+03 E0= -.14102399E+03  d E =-.134107E-02
       N       E                     dE             d eps       ncg     rms          rms(c)
DAV:   1    -0.141026614900E+03   -0.11624E-03   -0.14116E-01  2768   0.164E+00    0.515E-02
DAV:   2    -0.141026859818E+03   -0.24492E-03   -0.29884E-03  2992   0.223E-01    0.299E-02
DAV:   3    -0.141026835035E+03    0.24783E-04   -0.40783E-05  2664   0.354E-02    0.208E-02
DAV:   4    -0.141026813558E+03    0.21477E-04   -0.59253E-05  2824   0.579E-02    0.753E-03
DAV:   5    -0.141026813859E+03   -0.30143E-06   -0.41066E-05  2688   0.311E-02    0.883E-03
DAV:   6    -0.141026813408E+03    0.45092E-06   -0.43758E-06  1600   0.858E-03
  29 F= -.14102681E+03 E0= -.14102433E+03  d E =-.318749E-03
       N       E                     dE             d eps       ncg     rms          rms(c)
DAV:   1    -0.141026800042E+03    0.13818E-04   -0.38948E-02  2752   0.859E-01    0.272E-02
DAV:   2    -0.141026867920E+03   -0.67878E-04   -0.82876E-04  3008   0.118E-01    0.149E-02
DAV:   3    -0.141026861043E+03    0.68762E-05   -0.10151E-05  1768   0.190E-02    0.106E-02
DAV:   4    -0.141026854375E+03    0.66682E-05   -0.16216E-05  1856   0.320E-02    0.375E-03
DAV:   5    -0.141026854278E+03    0.97097E-07   -0.15707E-05  1672   0.197E-02    0.458E-03
DAV:   6    -0.141026854273E+03    0.48694E-08   -0.27271E-06  1512   0.659E-03
  30 F= -.14102685E+03 E0= -.14102438E+03  d E =-.359613E-03
       N       E                     dE             d eps       ncg     rms          rms(c)
DAV:   1    -0.141026978500E+03   -0.12422E-03   -0.41118E-02  2864   0.896E-01    0.281E-02
DAV:   2    -0.141027052865E+03   -0.74365E-04   -0.93227E-04  2992   0.130E-01    0.172E-02
DAV:   3    -0.141027042291E+03    0.10574E-04   -0.21796E-05  2008   0.290E-02    0.122E-02
DAV:   4    -0.141027032270E+03    0.10021E-04   -0.15468E-05  2000   0.288E-02    0.585E-03
DAV:   5    -0.141027027583E+03    0.46879E-05   -0.12568E-05  1856   0.276E-02    0.451E-03
DAV:   6    -0.141027026397E+03    0.11855E-05   -0.10863E-05  1624   0.201E-02
  31 F= -.14102703E+03 E0= -.14102456E+03  d E =-.172124E-03
       N       E                     dE             d eps       ncg     rms          rms(c)
DAV:   1    -0.141027025763E+03    0.18196E-05   -0.25134E-02  2896   0.701E-01    0.205E-02
DAV:   2    -0.141027065885E+03   -0.40123E-04   -0.55969E-04  3000   0.103E-01    0.142E-02
DAV:   3    -0.141027056961E+03    0.89249E-05   -0.16094E-05  1840   0.260E-02    0.106E-02
DAV:   4    -0.141027046488E+03    0.10473E-04   -0.10054E-05  1784   0.263E-02    0.553E-03
DAV:   5    -0.141027039194E+03    0.72942E-05   -0.13344E-05  2096   0.321E-02    0.409E-03
DAV:   6    -0.141027037056E+03    0.21378E-05   -0.12218E-05  1760   0.254E-02
  32 F= -.14102704E+03 E0= -.14102458E+03  d E =-.182783E-03
