 vasp.5.3.5 31Mar14 (build Apr 08 2024 10:12:10) complex                        
  
 executed on             LinuxIFC date 2024.07.29  19:28:54
 running on    8 total cores
 distrk:  each k-point on    8 cores,    1 groups
 distr:  one band on NCORES_PER_BAND=   4 cores,    2 groups


--------------------------------------------------------------------------------------------------------


 INCAR:
 POTCAR:    PAW_PBE O 08Apr2002                   
 POTCAR:    PAW_PBE Mg 13Apr2007                  
 POTCAR:    PAW_PBE Al 04Jan2001                  
 POTCAR:    PAW_PBE O 08Apr2002                   
   VRHFIN =O: s2p4                                                              
   LEXCH  = PE                                                                  
   EATOM  =   432.3788 eV,   31.7789 Ry                                         
                                                                                
   TITEL  = PAW_PBE O 08Apr2002                                                 
   LULTRA =        F    use ultrasoft PP ?                                      
   IUNSCR =        1    unscreen: 0-lin 1-nonlin 2-no                           
   RPACOR =    1.200    partial core radius                                     
   POMASS =   16.000; ZVAL   =    6.000    mass and valenz                      
   RCORE  =    1.520    outmost cutoff radius                                   
   RWIGS  =    1.550; RWIGS  =    0.820    wigner-seitz radius (au A)           
   ENMAX  =  400.000; ENMIN  =  300.000 eV                                      
   ICORE  =        2    local potential                                         
   LCOR   =        T    correct aug charges                                     
   LPAW   =        T    paw PP                                                  
   EAUG   =  605.392                                                            
   DEXC   =    0.000                                                            
   RMAX   =    1.553    core radius for proj-oper                               
   RAUG   =    1.300    factor for augmentation sphere                          
   RDEP   =    1.550    radius for radial grids                                 
   RDEPT  =    1.329    core radius for aug-charge                              
                                                                                
   Atomic configuration                                                         
    4 entries                                                                   
     n  l   j            E        occ.                                          
     1  0  0.50      -514.6923   2.0000                                         
     2  0  0.50       -23.9615   2.0000                                         
     2  1  0.50        -9.0305   4.0000                                         
     3  2  1.50        -9.5241   0.0000                                         
   Description                                                                  
     l       E           TYP  RCUT    TYP  RCUT                                 
     0    -23.9615318     23  1.200                                             
     0     -9.5240782     23  1.200                                             
     1     -9.0304911     23  1.520                                             
     1      8.1634956     23  1.520                                             
     2     -9.5240782      7  1.500                                             
  local pseudopotential read in
  partial core-charges read in
  partial kinetic energy density read in
  kinetic energy density of atom read in
  atomic valenz-charges read in
  non local Contribution for L=           0  read in
    real space projection operators read in
  non local Contribution for L=           0  read in
    real space projection operators read in
  non local Contribution for L=           1  read in
    real space projection operators read in
  non local Contribution for L=           1  read in
    real space projection operators read in
    PAW grid and wavefunctions read in
 
   number of l-projection  operators is LMAX  =           4
   number of lm-projection operators is LMMAX =           8
 
 POTCAR:    PAW_PBE Mg 13Apr2007                  
   VRHFIN =Mg: s2p0                                                             
   LEXCH  = PE                                                                  
   EATOM  =    23.0369 eV,    1.6932 Ry                                         
                                                                                
   TITEL  = PAW_PBE Mg 13Apr2007                                                
   LULTRA =        F    use ultrasoft PP ?                                      
   IUNSCR =        1    unscreen: 0-lin 1-nonlin 2-no                           
   RPACOR =    1.500    partial core radius                                     
   POMASS =   24.305; ZVAL   =    2.000    mass and valenz                      
   RCORE  =    2.000    outmost cutoff radius                                   
   RWIGS  =    2.880; RWIGS  =    1.524    wigner-seitz radius (au A)           
   ENMAX  =  200.000; ENMIN  =  100.000 eV                                      
   RCLOC  =    1.506    cutoff for local pot                                    
   LCOR   =        T    correct aug charges                                     
   LPAW   =        T    paw PP                                                  
   EAUG   =  454.734                                                            
   DEXC   =    0.000                                                            
   RMAX   =    2.045    core radius for proj-oper                               
   RAUG   =    1.300    factor for augmentation sphere                          
   RDEP   =    2.025    radius for radial grids                                 
   RDEPT  =    1.942    core radius for aug-charge                              
                                                                                
   Atomic configuration                                                         
    6 entries                                                                   
     n  l   j            E        occ.                                          
     1  0  0.50     -1259.6230   2.0000                                         
     2  0  0.50       -79.8442   2.0000                                         
     2  1  1.50       -46.6121   6.0000                                         
     3  0  0.50        -4.7055   2.0000                                         
     3  1  0.50        -1.3660   0.0000                                         
     3  2  1.50        -1.3606   0.0000                                         
   Description                                                                  
     l       E           TYP  RCUT    TYP  RCUT                                 
     0     -4.7054661     23  2.000                                             
     0     27.2116520     23  2.000                                             
     1      1.3605826     23  2.000                                             
     1     27.2116520     23  2.000                                             
     2     -1.3605826     23  2.000                                             
  local pseudopotential read in
  partial core-charges read in
  partial kinetic energy density read in
  atomic valenz-charges read in
  non local Contribution for L=           0  read in
    real space projection operators read in
  non local Contribution for L=           0  read in
    real space projection operators read in
  non local Contribution for L=           1  read in
    real space projection operators read in
  non local Contribution for L=           1  read in
    real space projection operators read in
  non local Contribution for L=           2  read in
    real space projection operators read in
    PAW grid and wavefunctions read in
 
   number of l-projection  operators is LMAX  =           5
   number of lm-projection operators is LMMAX =          13
 
 POTCAR:    PAW_PBE Al 04Jan2001                  
   VRHFIN =Al: s2p1                                                             
   LEXCH  = PE                                                                  
   EATOM  =    53.5387 eV,    3.9350 Ry                                         
                                                                                
   TITEL  = PAW_PBE Al 04Jan2001                                                
   LULTRA =        F    use ultrasoft PP ?                                      
   IUNSCR =        1    unscreen: 0-lin 1-nonlin 2-no                           
   RPACOR =    1.500    partial core radius                                     
   POMASS =   26.981; ZVAL   =    3.000    mass and valenz                      
   RCORE  =    1.900    outmost cutoff radius                                   
   RWIGS  =    2.650; RWIGS  =    1.402    wigner-seitz radius (au A)           
   ENMAX  =  240.300; ENMIN  =  180.225 eV                                      
   ICORE  =        2    local potential                                         
   LCOR   =        T    correct aug charges                                     
   LPAW   =        T    paw PP                                                  
   EAUG   =  291.052                                                            
   DEXC   =    0.000                                                            
   RMAX   =    1.939    core radius for proj-oper                               
   RAUG   =    1.300    factor for augmentation sphere                          
   RDEP   =    1.966    radius for radial grids                                 
   RDEPT  =    1.856    core radius for aug-charge                              
                                                                                
   Atomic configuration                                                         
    6 entries                                                                   
     n  l   j            E        occ.                                          
     1  0  0.50     -1511.1048   2.0000                                         
     2  0  0.50      -108.1629   2.0000                                         
     2  1  1.50       -69.6402   6.0000                                         
     3  0  0.50        -7.7528   2.0000                                         
     3  1  1.50        -2.7121   1.0000                                         
     3  2  2.50        -2.7212   0.0000                                         
   Description                                                                  
     l       E           TYP  RCUT    TYP  RCUT                                 
     0     -7.7528455     23  1.900                                             
     0     -3.3096929     23  1.900                                             
     1     -2.7120682     23  1.900                                             
     1     13.6058260     23  1.900                                             
     2     -2.7211652      7  1.900                                             
  local pseudopotential read in
  partial core-charges read in
  partial kinetic energy density read in
  atomic valenz-charges read in
  non local Contribution for L=           0  read in
    real space projection operators read in
  non local Contribution for L=           0  read in
    real space projection operators read in
  non local Contribution for L=           1  read in
    real space projection operators read in
  non local Contribution for L=           1  read in
    real space projection operators read in
    PAW grid and wavefunctions read in
 
   number of l-projection  operators is LMAX  =           4
   number of lm-projection operators is LMMAX =           8
 

 ----------------------------------------------------------------------------- 
|                                                                             |
|  ADVICE TO THIS USER RUNNING 'VASP/VAMP'   (HEAR YOUR MASTER'S VOICE ...):  |
|                                                                             |
|      You have a (more or less) 'large supercell' and for larger cells       |
|      it might be more efficient to use real space projection opertators     |
|      So try LREAL= Auto  in the INCAR   file.                               |
|      Mind: At the moment your POTCAR file does not contain real space       |
|       projectors, and has to be modified,  BUT if you                       |
|      want to do an extremely  accurate calculation you might also keep the  |
|      reciprocal projection scheme          (i.e. LREAL=.FALSE.)             |
|                                                                             |
 ----------------------------------------------------------------------------- 

  PAW_PBE O 08Apr2002                   :
 energy of atom  1       EATOM= -432.3788
 kinetic energy error for atom=    0.0208 (will be added to EATOM!!)
  PAW_PBE Mg 13Apr2007                  :
 energy of atom  2       EATOM=  -23.0369
 kinetic energy error for atom=    0.0000 (will be added to EATOM!!)
  PAW_PBE Al 04Jan2001                  :
 energy of atom  3       EATOM=  -53.5387
 kinetic energy error for atom=    0.0002 (will be added to EATOM!!)
 
 
 POSCAR: Layer                                   
  positions in direct lattice
  velocities in cartesian coordinates
 exchange correlation table for  LEXCH =        8
   RHO(1)=    0.500       N(1)  =     2000
   RHO(2)=  100.500       N(2)  =     4000
 


--------------------------------------------------------------------------------------------------------


 ion  position               nearest neighbor table
   1  0.000  0.000  0.250-  21 1.76  14 2.09  14 2.09  14 2.09
   2  0.333  0.667  0.309-  11 2.15  11 2.15  11 2.15  14 2.16  14 2.16  14 2.16
   3  0.000  0.000  0.433-  15 2.15  15 2.15  15 2.15  17 2.15  17 2.15  17 2.15
   4  0.333  0.667  0.495-  12 2.15  12 2.15  12 2.15  15 2.15  15 2.15  15 2.15
   5  0.000  0.000  0.619-  18 2.15  18 2.15  18 2.15  16 2.15  16 2.15  16 2.15
   6  0.333  0.667  0.681-  16 2.15  16 2.15  16 2.15  13 2.15  13 2.15  13 2.15
   7  0.000  0.000  0.802-  24 1.76  19 2.09  19 2.09  19 2.09
   8  0.667  0.333  0.371-  17 2.15  17 2.15  17 2.15  11 2.15  11 2.15  11 2.15
   9  0.667  0.333  0.557-  18 2.15  18 2.15  18 2.15  12 2.15  12 2.15  12 2.15
  10  0.667  0.333  0.743-  13 2.15  13 2.15  13 2.15  19 2.16  19 2.16  19 2.16
  11  0.000  0.000  0.340-   2 2.15   2 2.15   2 2.15   8 2.15   8 2.15   8 2.15  17 3.09  17 3.09
                            17 3.09  14 3.09  14 3.09  14 3.09
  12  0.000  0.000  0.526-   4 2.15   4 2.15   4 2.15   9 2.15   9 2.15   9 2.15  15 3.09  15 3.09
                            15 3.09  18 3.09  18 3.09  18 3.09
  13  0.000  0.000  0.712-  10 2.15  10 2.15  10 2.15   6 2.15   6 2.15   6 2.15  16 3.09  16 3.09
                            16 3.09  19 3.09  19 3.09  19 3.09
  14  0.667  0.333  0.278-   1 2.09   1 2.09   1 2.09   2 2.16   2 2.16   2 2.16  11 3.09  11 3.09
                            11 3.09  21 3.41  21 3.41  21 3.41
  15  0.667  0.333  0.464-   3 2.15   3 2.15   3 2.15   4 2.15   4 2.15   4 2.15  17 3.09  17 3.09
                            17 3.09  12 3.09  12 3.09  12 3.09
  16  0.667  0.333  0.650-   6 2.15   6 2.15   6 2.15   5 2.15   5 2.15   5 2.15  18 3.09  18 3.09
                            18 3.09  13 3.09  13 3.09  13 3.09
  17  0.333  0.667  0.402-   8 2.15   8 2.15   8 2.15   3 2.15   3 2.15   3 2.15  15 3.09  15 3.09
                            15 3.09  11 3.09  11 3.09  11 3.09
  18  0.333  0.667  0.588-   5 2.15   5 2.15   5 2.15   9 2.15   9 2.15   9 2.15  16 3.09  16 3.09
                            16 3.09  12 3.09  12 3.09  12 3.09
  19  0.333  0.667  0.774-   7 2.09   7 2.09   7 2.09  10 2.16  10 2.16  10 2.16  13 3.09  13 3.09
                            13 3.09  24 3.41  24 3.41  24 3.41
  20  0.000  0.000  0.026-  23 3.04  23 3.04  23 3.04  25 3.04  25 3.04  25 3.04
  21  0.000  0.000  0.207-   1 1.76  22 3.00  22 3.00  22 3.00  14 3.41  14 3.41  14 3.41
  22  0.667  0.333  0.148-  21 3.00  21 3.00  21 3.00  23 3.07  23 3.07  23 3.07
  23  0.333  0.667  0.086-  20 3.04  20 3.04  20 3.04  22 3.07  22 3.07  22 3.07
  24  0.000  0.000  0.845-   7 1.76  26 3.00  26 3.00  26 3.00  19 3.41  19 3.41  19 3.41
  25  0.667  0.333  0.966-  20 3.04  20 3.04  20 3.04  26 3.07  26 3.07  26 3.07
  26  0.333  0.667  0.904-  24 3.00  24 3.00  24 3.00  25 3.07  25 3.07  25 3.07
 
  LATTYP: Found a hexagonal cell.
 ALAT       =     3.0027496481
 C/A-ratio  =    13.7342605778
  
  Lattice vectors:
  
 A1 = (   2.6004576727,  -1.5013744842,   0.0000000000)
 A2 = (   0.0000000000,   3.0027489684,   0.0000000000)
 A3 = (   0.0000000000,  -0.0000000000,  41.2405461172)


Analysis of symmetry for initial positions (statically):
=====================================================================
 Subroutine PRICEL returns:
 Original cell was already a primitive cell.
 

 Routine SETGRP: Setting up the symmetry group for a 
 hexagonal supercell.


 Subroutine GETGRP returns: Found  6 space group operations
 (whereof  6 operations were pure point group operations)
 out of a pool of 24 trial point group operations.


The static configuration has the point symmetry C_3v.


Analysis of symmetry for dynamics (positions and initial velocities):
=====================================================================
 Subroutine PRICEL returns:
 Original cell was already a primitive cell.
 

 Routine SETGRP: Setting up the symmetry group for a 
 hexagonal supercell.


 Subroutine GETGRP returns: Found  6 space group operations
 (whereof  6 operations were pure point group operations)
 out of a pool of 24 trial point group operations.


The dynamic configuration has the point symmetry C_3v.


Analysis of constrained symmetry for selective dynamics:
=====================================================================
 Subroutine PRICEL returns:
 Original cell was already a primitive cell.
 

 Routine SETGRP: Setting up the symmetry group for a 
 hexagonal supercell.


 Subroutine GETGRP returns: Found  6 space group operations
 (whereof  6 operations were pure point group operations)
 out of a pool of 24 trial point group operations.


The constrained configuration has the point symmetry C_3v.
 
 
 KPOINTS: K-Spacing Value to Generate K-Mesh: 0.02

Automatic generation of k-mesh.
Space group operators:
 irot       det(A)        alpha          n_x          n_y          n_z        tau_x        tau_y        tau_z
    1     1.000000     0.000000     1.000000     0.000000     0.000000     0.000000     0.000000     0.000000
    2     1.000000   120.000000    -0.000000    -0.000000    -1.000000     0.000000     0.000000     0.000000
    3     1.000000   120.000000     0.000000    -0.000000     1.000000     0.000000     0.000000     0.000000
    4    -1.000000   180.000000    -0.866025     0.500000     0.000000     0.000000     0.000000     0.000000
    5    -1.000000   180.000000     0.000000     1.000000     0.000000     0.000000     0.000000     0.000000
    6    -1.000000   180.000000    -0.866025    -0.500000     0.000000     0.000000     0.000000     0.000000
 
 Subroutine IBZKPT returns following result:
 ===========================================
 
 Found     21 irreducible k-points:
 
 Following reciprocal coordinates:
            Coordinates               Weight
  0.000000  0.000000  0.000000      1.000000
  0.076923  0.000000 -0.000000      6.000000
  0.153846  0.000000 -0.000000      6.000000
  0.230769  0.000000  0.000000      6.000000
  0.307692  0.000000  0.000000      6.000000
  0.384615  0.000000 -0.000000      6.000000
  0.461538  0.000000  0.000000      6.000000
  0.076923  0.076923 -0.000000      6.000000
  0.153846  0.076923 -0.000000     12.000000
  0.230769  0.076923 -0.000000     12.000000
  0.307692  0.076923 -0.000000     12.000000
  0.384615  0.076923 -0.000000     12.000000
  0.461538  0.076923  0.000000      6.000000
  0.153846  0.153846 -0.000000      6.000000
  0.230769  0.153846  0.000000     12.000000
  0.307692  0.153846 -0.000000     12.000000
  0.384615  0.153846 -0.000000     12.000000
  0.230769  0.230769 -0.000000      6.000000
  0.307692  0.230769 -0.000000     12.000000
  0.384615  0.230769  0.000000      6.000000
  0.307692  0.307692 -0.000000      6.000000
 
 Following cartesian coordinates:
            Coordinates               Weight
  0.000000  0.000000  0.000000      1.000000
  0.029581  0.000000 -0.000000      6.000000
  0.059161  0.000000 -0.000000      6.000000
  0.088742  0.000000 -0.000000      6.000000
  0.118322  0.000000 -0.000000      6.000000
  0.147903  0.000000 -0.000000      6.000000
  0.177484  0.000000 -0.000000      6.000000
  0.044371  0.025618 -0.000000      6.000000
  0.073951  0.025618 -0.000000     12.000000
  0.103532  0.025618 -0.000000     12.000000
  0.133113  0.025618 -0.000000     12.000000
  0.162693  0.025618 -0.000000     12.000000
  0.192274  0.025618 -0.000000      6.000000
  0.088742  0.051235 -0.000000      6.000000
  0.118322  0.051235 -0.000000     12.000000
  0.147903  0.051235 -0.000000     12.000000
  0.177484  0.051235 -0.000000     12.000000
  0.133113  0.076853 -0.000000      6.000000
  0.162693  0.076853 -0.000000     12.000000
  0.192274  0.076853 -0.000000      6.000000
  0.177484  0.102470 -0.000000      6.000000
 


--------------------------------------------------------------------------------------------------------




 Dimension of arrays:
   k-points           NKPTS =     21   k-points in BZ     NKDIM =     21   number of bands    NBANDS=     64
   number of dos      NEDOS =    301   number of ions     NIONS =     26
   non local maximal  LDIM  =      5   non local SUM 2l+1 LMDIM =     13
   total plane-waves  NPLWV = 184320
   max r-space proj   IRMAX =      1   max aug-charges    IRDMAX= 194691
   dimension x,y,z NGX =    24 NGY =   24 NGZ =  320
   dimension x,y,z NGXF=    48 NGYF=   48 NGZF=  640
   support grid    NGXF=    96 NGYF=   96 NGZF= 1280
   ions per type =              10   9   7
 NGX,Y,Z   is equivalent  to a cutoff of  13.29, 13.29, 12.90 a.u.
 NGXF,Y,Z  is equivalent  to a cutoff of  26.57, 26.57, 25.80 a.u.


 I would recommend the setting:
   dimension x,y,z NGX =    22 NGY =   22 NGZ =  307
 SYSTEM =  unknown system                          
 POSCAR =  Layer                                   

 Startparameter for this run:
   NWRITE =      2    write-flag & timer
   PREC   = accura    normal or accurate (medium, high low for compatibility)
   ISTART =      0    job   : 0-new  1-cont  2-samecut
   ICHARG =      2    charge: 1-file 2-atom 10-const
   ISPIN  =      1    spin polarized calculation?
   LNONCOLLINEAR =      F non collinear calculations
   LSORBIT =      F    spin-orbit coupling
   INIWAV =      1    electr: 0-lowe 1-rand  2-diag
   LASPH  =      F    aspherical Exc in radial PAW
   METAGGA=      F    non-selfconsistent MetaGGA calc.

 Electronic Relaxation 1
   ENCUT  =  520.0 eV  38.22 Ry    6.18 a.u.   5.58  5.58 76.68*2*pi/ulx,y,z
   ENINI  =  520.0     initial cutoff
   ENAUG  =  605.4 eV  augmentation charge cutoff
   NELM   =    100;   NELMIN=  6; NELMDL=  0     # of ELM steps 
   EDIFF  = 0.1E-04   stopping-criterion for ELM
   LREAL  =      F    real-space projection
   NLSPLINE    = F    spline interpolate recip. space projectors
   LCOMPAT=      F    compatible to vasp.4.4
   GGA_COMPAT  = T    GGA compatible to vasp.4.4-vasp.4.6
   LMAXPAW     = -100 max onsite density
   LMAXMIX     =    2 max onsite mixed and CHGCAR
   VOSKOWN=      0    Vosko Wilk Nusair interpolation
   ROPT   =    0.00000   0.00000   0.00000
 Ionic relaxation
   EDIFFG = -.2E-01   stopping-criterion for IOM
   NSW    =    500    number of steps for IOM
   NBLOCK =      1;   KBLOCK =    500    inner block; outer block 
   IBRION =      2    ionic relax: 0-MD 1-quasi-New 2-CG
   NFREE  =      1    steps in history (QN), initial steepest desc. (CG)
   ISIF   =      2    stress and relaxation
   IWAVPR =     11    prediction:  0-non 1-charg 2-wave 3-comb
   ISYM   =      2    0-nonsym 1-usesym 2-fastsym
   LCORR  =      T    Harris-Foulkes like correction to forces

   POTIM  = 0.5000    time-step for ionic-motion
   TEIN   =    0.0    initial temperature
   TEBEG  =    0.0;   TEEND  =   0.0 temperature during run
   SMASS  =  -3.00    Nose mass-parameter (am)
   estimated Nose-frequenzy (Omega)   =  0.10E-29 period in steps =****** mass=  -0.206E-27a.u.
   SCALEE = 1.0000    scale energy and forces
   NPACO  =    256;   APACO  = 16.0  distance and # of slots for P.C.
   PSTRESS=    0.0 pullay stress

  Mass of Ions in am
   POMASS =  16.00 24.30 26.98
  Ionic Valenz
   ZVAL   =   6.00  2.00  3.00
  Atomic Wigner-Seitz radii
   RWIGS  =  -1.00 -1.00 -1.00
  virtual crystal weights 
   VCA    =   1.00  1.00  1.00
   NELECT =      99.0000    total number of electrons
   NUPDOWN=      -1.0000    fix difference up-down

 DOS related values:
   EMIN   =  10.00;   EMAX   =-10.00  energy-range for DOS
   EFERMI =   0.00
   ISMEAR =     0;   SIGMA  =   0.05  broadening in eV -4-tet -1-fermi 0-gaus

 Electronic relaxation 2 (details)
   IALGO  =     38    algorithm
   LDIAG  =      T    sub-space diagonalisation (order eigenvalues)
   LSUBROT=      F    optimize rotation matrix (better conditioning)
   TURBO    =      0    0=normal 1=particle mesh
   IRESTART =      0    0=no restart 2=restart with 2 vectors
   NREBOOT  =      0    no. of reboots
   NMIN     =      0    reboot dimension
   EREF     =   0.00    reference energy to select bands
   IMIX   =      4    mixing-type and parameters
     AMIX     =   0.40;   BMIX     =  1.00
     AMIX_MAG =   1.60;   BMIX_MAG =  1.00
     AMIN     =   0.01
     WC   =   100.;   INIMIX=   1;  MIXPRE=   1;  MAXMIX= -45

 Intra band minimization:
   WEIMIN = 0.0010     energy-eigenvalue tresh-hold
   EBREAK =  0.39E-07  absolut break condition
   DEPER  =   0.30     relativ break condition  

   TIME   =   0.40     timestep for ELM

  volume/ion in A,a.u.               =      12.39        83.58
  Fermi-wavevector in a.u.,A,eV,Ry     =   1.104898  2.087954 16.609984  1.220799
  Thomas-Fermi vector in A             =   2.241377
 
 Write flags
   LWAVE  =      F    write WAVECAR
   LCHARG =      T    write CHGCAR
   LVTOT  =      F    write LOCPOT, total local potential
   LVHAR  =      F    write LOCPOT, Hartree potential only
   LELF   =      F    write electronic localiz. function (ELF)
   LORBIT =      0    0 simple, 1 ext, 2 COOP (PROOUT)


 Dipole corrections
   LMONO  =      F    monopole corrections only (constant potential shift)
   LDIPOL =      F    correct potential (dipole corrections)
   IDIPOL =      0    1-x, 2-y, 3-z, 4-all directions 
   EPSILON=  1.0000000 bulk dielectric constant

 Exchange correlation treatment:
   GGA     =    --    GGA type
   LEXCH   =     8    internal setting for exchange type
   VOSKOWN=      0    Vosko Wilk Nusair interpolation
   LHFCALC =     F    Hartree Fock is set to
   LHFONE  =     F    Hartree Fock one center treatment
   AEXX    =    0.0000 exact exchange contribution

 Linear response parameters
   LEPSILON=     F    determine dielectric tensor
   LRPA    =     F    only Hartree local field effects (RPA)
   LNABLA  =     F    use nabla operator in PAW spheres
   LVEL    =     F    velocity operator in full k-point grid
   LINTERFAST=   F  fast interpolation
   KINTER  =     0    interpolate to denser k-point grid
   CSHIFT  =0.1000    complex shift for real part using Kramers Kronig
   OMEGAMAX=  -1.0    maximum frequency
   DEG_THRESHOLD= 0.2000000E-02 threshold for treating states as degnerate
   RTIME   =    0.100 relaxation time in fs

 Orbital magnetization related:
   ORBITALMAG=     F  switch on orbital magnetization
   LCHIMAG   =     F  perturbation theory with respect to B field
   DQ        =  0.001000  dq finite difference perturbation B field



--------------------------------------------------------------------------------------------------------


 conjugate gradient relaxation of ions
   using selective dynamics as specified on POSCAR
 charge density and potential will be updated during run
 non-spin polarized calculation
 Variant of blocked Davidson
 Davidson routine will perform the subspace rotation
 perform sub-space diagonalisation
    after iterative eigenvector-optimisation
 modified Broyden-mixing scheme, WC =      100.0
 initial mixing is a Kerker type mixing with AMIX =  0.4000 and BMIX =      1.0000
 Hartree-type preconditioning will be used
 using additional bands           14
 reciprocal scheme for non local part
 use partial core corrections
 calculate Harris-corrections to forces 
   (improved forces if not selfconsistent)
 use gradient corrections 
 use of overlap-Matrix (Vanderbilt PP)
 Gauss-broadening in eV      SIGMA  =   0.05


--------------------------------------------------------------------------------------------------------


  energy-cutoff  :      520.00
  volume of cell :      322.03
      direct lattice vectors                 reciprocal lattice vectors
     2.600457673 -1.501374484  0.000000000     0.384547693  0.000000000 -0.000000000
     0.000000000  3.002748968  0.000000000     0.192273847  0.333028172 -0.000000000
     0.000000000 -0.000000000 41.240546117     0.000000000  0.000000000  0.024247982

  length of vectors
     3.002749648  3.002748968 41.240546117     0.384547693  0.384547781  0.024247982


 
 k-points in units of 2pi/SCALE and weight: K-Spacing Value to Generate K-Mesh: 0.02
   0.00000000  0.00000000  0.00000000       0.006
   0.02958059  0.00000000 -0.00000000       0.036
   0.05916118  0.00000000 -0.00000000       0.036
   0.08874178  0.00000000 -0.00000000       0.036
   0.11832237  0.00000000 -0.00000000       0.036
   0.14790296  0.00000000 -0.00000000       0.036
   0.17748355  0.00000000 -0.00000000       0.036
   0.04437089  0.02561755 -0.00000000       0.036
   0.07395148  0.02561755 -0.00000000       0.071
   0.10353207  0.02561755 -0.00000000       0.071
   0.13311266  0.02561755 -0.00000000       0.071
   0.16269325  0.02561755 -0.00000000       0.071
   0.19227385  0.02561755 -0.00000000       0.036
   0.08874178  0.05123510 -0.00000000       0.036
   0.11832237  0.05123510 -0.00000000       0.071
   0.14790296  0.05123510 -0.00000000       0.071
   0.17748355  0.05123510 -0.00000000       0.071
   0.13311266  0.07685266 -0.00000000       0.036
   0.16269325  0.07685266 -0.00000000       0.071
   0.19227385  0.07685266 -0.00000000       0.036
   0.17748355  0.10247021 -0.00000000       0.036
 
 k-points in reciprocal lattice and weights: K-Spacing Value to Generate K-Mesh: 0.02
   0.00000000  0.00000000  0.00000000       0.006
   0.07692308  0.00000000 -0.00000000       0.036
   0.15384615  0.00000000 -0.00000000       0.036
   0.23076923  0.00000000  0.00000000       0.036
   0.30769231  0.00000000  0.00000000       0.036
   0.38461538  0.00000000 -0.00000000       0.036
   0.46153846  0.00000000  0.00000000       0.036
   0.07692308  0.07692308 -0.00000000       0.036
   0.15384615  0.07692308 -0.00000000       0.071
   0.23076923  0.07692308 -0.00000000       0.071
   0.30769231  0.07692308 -0.00000000       0.071
   0.38461538  0.07692308 -0.00000000       0.071
   0.46153846  0.07692308  0.00000000       0.036
   0.15384615  0.15384615 -0.00000000       0.036
   0.23076923  0.15384615  0.00000000       0.071
   0.30769231  0.15384615 -0.00000000       0.071
   0.38461538  0.15384615 -0.00000000       0.071
   0.23076923  0.23076923 -0.00000000       0.036
   0.30769231  0.23076923 -0.00000000       0.071
   0.38461538  0.23076923  0.00000000       0.036
   0.30769231  0.30769231 -0.00000000       0.036
 
 position of ions in fractional coordinates (direct lattice) 
   0.00000000  0.00000000  0.24984689
   0.33333300  0.66666700  0.30941111
   0.00000000  0.00000000  0.43322136
   0.33333300  0.66666700  0.49508813
   0.00000000  0.00000000  0.61885557
   0.33333300  0.66666700  0.68073956
   0.00000000  0.00000000  0.80223507
   0.66666700  0.33333300  0.37133846
   0.66666700  0.33333300  0.55699059
   0.66666700  0.33333300  0.74266772
   0.00000000  0.00000000  0.34032630
   0.00000000  0.00000000  0.52603390
   0.00000000  0.00000000  0.71174894
   0.66666700  0.33333300  0.27833952
   0.66666700  0.33333300  0.46413460
   0.66666700  0.33333300  0.64982400
   0.33333300  0.66666700  0.40224607
   0.33333300  0.66666700  0.58793574
   0.33333300  0.66666700  0.77373221
   0.00000000  0.00000000  0.02603644
   0.00000000  0.00000000  0.20720917
   0.66666700  0.33333300  0.14797725
   0.33333300  0.66666700  0.08648355
   0.00000000  0.00000000  0.84486038
   0.66666700  0.33333300  0.96558790
   0.33333300  0.66666700  0.90409657
 
 position of ions in cartesian coordinates  (Angst):
   0.00000000 -0.00000000 10.30382213
   0.86681836  1.50137599 12.76028305
   0.00000000 -0.00000000 17.86628552
   0.86681836  1.50137599 20.41770479
   0.00000000 -0.00000000 25.52194173
   0.86681836  1.50137599 28.07407133
   0.00000000 -0.00000000 33.08461236
   1.73363932 -0.00000150 15.31420091
   1.73363932 -0.00000150 22.97059623
   1.73363932 -0.00000150 30.62802237
   0.00000000 -0.00000000 14.03524233
   0.00000000 -0.00000000 21.69392513
   0.00000000 -0.00000000 29.35291501
   1.73363932 -0.00000150 11.47887390
   1.73363932 -0.00000150 19.14116443
   1.73363932 -0.00000150 26.79909660
   0.86681836  1.50137599 16.58884757
   0.86681836  1.50137599 24.24679120
   0.86681836  1.50137599 31.90913892
   0.00000000 -0.00000000  1.07375714
   0.00000000 -0.00000000  8.54541927
   1.73363932 -0.00000150  6.10266258
   0.86681836  1.50137599  3.56662868
   0.00000000 -0.00000000 34.84250335
   1.73363932 -0.00000150 39.82137235
   0.86681836  1.50137599 37.28543636
 


--------------------------------------------------------------------------------------------------------


 k-point  1 :   0.0000 0.0000 0.0000  plane waves:    8817
 k-point  2 :   0.0769 0.0000-0.0000  plane waves:    8775
 k-point  3 :   0.1538 0.0000-0.0000  plane waves:    8743
 k-point  4 :   0.2308 0.0000 0.0000  plane waves:    8726
 k-point  5 :   0.3077 0.0000 0.0000  plane waves:    8662
 k-point  6 :   0.3846 0.0000-0.0000  plane waves:    8630
 k-point  7 :   0.4615 0.0000 0.0000  plane waves:    8640
 k-point  8 :   0.0769 0.0769-0.0000  plane waves:    8757
 k-point  9 :   0.1538 0.0769-0.0000  plane waves:    8744
 k-point 10 :   0.2308 0.0769-0.0000  plane waves:    8689
 k-point 11 :   0.3077 0.0769-0.0000  plane waves:    8660
 k-point 12 :   0.3846 0.0769-0.0000  plane waves:    8635
 k-point 13 :   0.4615 0.0769 0.0000  plane waves:    8608
 k-point 14 :   0.1538 0.1538-0.0000  plane waves:    8699
 k-point 15 :   0.2308 0.1538 0.0000  plane waves:    8656
 k-point 16 :   0.3077 0.1538-0.0000  plane waves:    8650
 k-point 17 :   0.3846 0.1538-0.0000  plane waves:    8628
 k-point 18 :   0.2308 0.2308-0.0000  plane waves:    8654
 k-point 19 :   0.3077 0.2308-0.0000  plane waves:    8639
 k-point 20 :   0.3846 0.2308 0.0000  plane waves:    8644
 k-point 21 :   0.3077 0.3077-0.0000  plane waves:    8660

 maximum and minimum number of plane-waves per node :      2224     2139

 maximum number of plane-waves:      8817
 maximum index in each direction: 
   IXMAX=    5   IYMAX=    5   IZMAX=   76
   IXMIN=   -6   IYMIN=   -5   IZMIN=  -76

 NGX is ok and might be reduce to  24
 NGY is ok and might be reduce to  22
 NGZ is ok and might be reduce to 306

 parallel 3D FFT for wavefunctions:
    minimum data exchange during FFTs selected (reduces bandwidth)
 parallel 3D FFT for charge:
    minimum data exchange during FFTs selected (reduces bandwidth)


 total amount of memory used by VASP on root node   146966. kBytes
========================================================================

   base      :      30000. kBytes
   nonl-proj :      15301. kBytes
   fftplans  :      55170. kBytes
   grid      :      22118. kBytes
   one-center:         56. kBytes
   wavefun   :      24321. kBytes
 
     INWAV:  cpu time    0.00: real time    0.00
 Broyden mixing: mesh for mixing (old mesh)
   NGX = 11   NGY = 11   NGZ =153
  (NGX  = 48   NGY  = 48   NGZ  =640)
  gives a total of  18513 points

 initial charge density was supplied:
 charge density of overlapping atoms calculated
 number of electron      99.0000000 magnetization 
 keeping initial charge density in first step


--------------------------------------------------------------------------------------------------------


 Maximum index for augmentation-charges        23458 (set IRDMAX)


--------------------------------------------------------------------------------------------------------


 First call to EWALD:  gamma=   0.259
 Maximum number of real-space cells 6x 6x 1
 Maximum number of reciprocal cells 1x 1x14

 FEWALD executed in parallel
    FEWALD:  cpu time    0.00: real time    0.00


----------------------------------------- Iteration    1(   1)  ---------------------------------------


    POTLOK:  cpu time    0.11: real time    0.11
    SETDIJ:  cpu time    0.11: real time    0.11
     EDDAV:  cpu time    4.20: real time    4.23
       DOS:  cpu time    0.00: real time    0.00
    --------------------------------------------
      LOOP:  cpu time    4.41: real time    4.44

 eigenvalue-minimisations  :  2696
 total energy-change (2. order) : 0.5040983E+03  (-0.4432937E+04)
 number of electron      99.0000000 magnetization 
 augmentation part       99.0000000 magnetization 

 Free energy of the ion-electron system (eV)
  ---------------------------------------------------
  alpha Z        PSCENC =       131.04973462
  Ewald energy   TEWEN  =     10480.08436154
  -Hartree energ DENC   =    -15636.50647795
  -exchange      EXHF   =         0.00000000
  -V(xc)+E(xc)   XCENC  =      -343.45585198
  PAW double counting   =      4516.65612620    -3844.19644948
  entropy T*S    EENTRO =        -0.00889622
  eigenvalues    EBANDS =       294.79488355
  atomic energy  EATOM  =      4905.68083858
  ---------------------------------------------------
  free energy    TOTEN  =       504.09826886 eV

  energy without entropy =      504.10716508  energy(sigma->0) =      504.10271697


--------------------------------------------------------------------------------------------------------




----------------------------------------- Iteration    1(   2)  ---------------------------------------


     EDDAV:  cpu time    5.11: real time    5.12
       DOS:  cpu time    0.00: real time    0.00
    --------------------------------------------
      LOOP:  cpu time    5.11: real time    5.12

 eigenvalue-minimisations  :  3496
 total energy-change (2. order) :-0.6066913E+03  (-0.5774744E+03)
 number of electron      99.0000000 magnetization 
 augmentation part       99.0000000 magnetization 

 Free energy of the ion-electron system (eV)
  ---------------------------------------------------
  alpha Z        PSCENC =       131.04973462
  Ewald energy   TEWEN  =     10480.08436154
  -Hartree energ DENC   =    -15636.50647795
  -exchange      EXHF   =         0.00000000
  -V(xc)+E(xc)   XCENC  =      -343.45585198
  PAW double counting   =      4516.65612620    -3844.19644948
  entropy T*S    EENTRO =        -0.00265536
  eigenvalues    EBANDS =      -311.90261158
  atomic energy  EATOM  =      4905.68083858
  ---------------------------------------------------
  free energy    TOTEN  =      -102.59298540 eV

  energy without entropy =     -102.59033005  energy(sigma->0) =     -102.59165773


--------------------------------------------------------------------------------------------------------




----------------------------------------- Iteration    1(   3)  ---------------------------------------


     EDDAV:  cpu time    4.69: real time    4.69
       DOS:  cpu time    0.00: real time    0.00
    --------------------------------------------
      LOOP:  cpu time    4.69: real time    4.70

 eigenvalue-minimisations  :  3144
 total energy-change (2. order) :-0.5487837E+02  (-0.5461067E+02)
 number of electron      99.0000000 magnetization 
 augmentation part       99.0000000 magnetization 

 Free energy of the ion-electron system (eV)
  ---------------------------------------------------
  alpha Z        PSCENC =       131.04973462
  Ewald energy   TEWEN  =     10480.08436154
  -Hartree energ DENC   =    -15636.50647795
  -exchange      EXHF   =         0.00000000
  -V(xc)+E(xc)   XCENC  =      -343.45585198
  PAW double counting   =      4516.65612620    -3844.19644948
  entropy T*S    EENTRO =        -0.00310899
  eigenvalues    EBANDS =      -366.78052567
  atomic energy  EATOM  =      4905.68083858
  ---------------------------------------------------
  free energy    TOTEN  =      -157.47135312 eV

  energy without entropy =     -157.46824413  energy(sigma->0) =     -157.46979863


--------------------------------------------------------------------------------------------------------




----------------------------------------- Iteration    1(   4)  ---------------------------------------


     EDDAV:  cpu time    4.68: real time    4.68
       DOS:  cpu time    0.00: real time    0.00
    --------------------------------------------
      LOOP:  cpu time    4.68: real time    4.69

 eigenvalue-minimisations  :  3152
 total energy-change (2. order) :-0.6757408E+00  (-0.6747588E+00)
 number of electron      99.0000000 magnetization 
 augmentation part       99.0000000 magnetization 

 Free energy of the ion-electron system (eV)
  ---------------------------------------------------
  alpha Z        PSCENC =       131.04973462
  Ewald energy   TEWEN  =     10480.08436154
  -Hartree energ DENC   =    -15636.50647795
  -exchange      EXHF   =         0.00000000
  -V(xc)+E(xc)   XCENC  =      -343.45585198
  PAW double counting   =      4516.65612620    -3844.19644948
  entropy T*S    EENTRO =        -0.00328090
  eigenvalues    EBANDS =      -367.45609451
  atomic energy  EATOM  =      4905.68083858
  ---------------------------------------------------
  free energy    TOTEN  =      -158.14709388 eV

  energy without entropy =     -158.14381297  energy(sigma->0) =     -158.14545343


--------------------------------------------------------------------------------------------------------




----------------------------------------- Iteration    1(   5)  ---------------------------------------


     EDDAV:  cpu time    4.85: real time    4.85
       DOS:  cpu time    0.00: real time    0.00
    CHARGE:  cpu time    0.37: real time    0.37
    MIXING:  cpu time    0.01: real time    0.01
    --------------------------------------------
      LOOP:  cpu time    5.23: real time    5.23

 eigenvalue-minimisations  :  3192
 total energy-change (2. order) :-0.9993096E-02  (-0.9990467E-02)
 number of electron      99.0000001 magnetization 
 augmentation part        7.7820567 magnetization 

 Broyden mixing:
  rms(total) = 0.23623E+01    rms(broyden)= 0.23618E+01
  rms(prec ) = 0.24283E+01
  weight for this iteration     100.00

 Free energy of the ion-electron system (eV)
  ---------------------------------------------------
  alpha Z        PSCENC =       131.04973462
  Ewald energy   TEWEN  =     10480.08436154
  -Hartree energ DENC   =    -15636.50647795
  -exchange      EXHF   =         0.00000000
  -V(xc)+E(xc)   XCENC  =      -343.45585198
  PAW double counting   =      4516.65612620    -3844.19644948
  entropy T*S    EENTRO =        -0.00328268
  eigenvalues    EBANDS =      -367.46608583
  atomic energy  EATOM  =      4905.68083858
  ---------------------------------------------------
  free energy    TOTEN  =      -158.15708697 eV

  energy without entropy =     -158.15380429  energy(sigma->0) =     -158.15544563


--------------------------------------------------------------------------------------------------------




----------------------------------------- Iteration    1(   6)  ---------------------------------------


    POTLOK:  cpu time    0.10: real time    0.10
    SETDIJ:  cpu time    0.11: real time    0.11
     EDDAV:  cpu time    4.62: real time    4.63
       DOS:  cpu time    0.00: real time    0.00
    CHARGE:  cpu time    0.37: real time    0.37
    MIXING:  cpu time    0.01: real time    0.01
    --------------------------------------------
      LOOP:  cpu time    5.21: real time    5.22

 eigenvalue-minimisations  :  3176
 total energy-change (2. order) : 0.1692183E+02  (-0.9369489E+01)
 number of electron      99.0000001 magnetization 
 augmentation part        6.2533310 magnetization 

 Broyden mixing:
  rms(total) = 0.79415E+00    rms(broyden)= 0.79317E+00
  rms(prec ) = 0.80238E+00
  weight for this iteration     100.00

 eigenvalues of (default mixing * dielectric matrix)
  average eigenvalue GAMMA=   0.8415
  0.8415

 Free energy of the ion-electron system (eV)
  ---------------------------------------------------
  alpha Z        PSCENC =       131.04973462
  Ewald energy   TEWEN  =     10480.08436154
  -Hartree energ DENC   =    -15839.98356758
  -exchange      EXHF   =         0.00000000
  -V(xc)+E(xc)   XCENC  =      -329.82838961
  PAW double counting   =      5380.30935894    -4711.36199439
  entropy T*S    EENTRO =        -0.00680279
  eigenvalues    EBANDS =      -157.17879598
  atomic energy  EATOM  =      4905.68083858
  ---------------------------------------------------
  free energy    TOTEN  =      -141.23525667 eV

  energy without entropy =     -141.22845387  energy(sigma->0) =     -141.23185527


--------------------------------------------------------------------------------------------------------




----------------------------------------- Iteration    1(   7)  ---------------------------------------


    POTLOK:  cpu time    0.10: real time    0.10
    SETDIJ:  cpu time    0.10: real time    0.10
     EDDAV:  cpu time    4.45: real time    4.46
       DOS:  cpu time    0.00: real time    0.00
    CHARGE:  cpu time    0.36: real time    0.36
    MIXING:  cpu time    0.00: real time    0.00
    --------------------------------------------
      LOOP:  cpu time    5.03: real time    5.04

 eigenvalue-minimisations  :  3008
 total energy-change (2. order) :-0.1065221E-01  (-0.3432302E+00)
 number of electron      99.0000002 magnetization 
 augmentation part        6.2726015 magnetization 

 Broyden mixing:
  rms(total) = 0.49724E+00    rms(broyden)= 0.49721E+00
  rms(prec ) = 0.50601E+00
  weight for this iteration     100.00

 eigenvalues of (default mixing * dielectric matrix)
  average eigenvalue GAMMA=   1.4586
  1.0224  1.8948

 Free energy of the ion-electron system (eV)
  ---------------------------------------------------
  alpha Z        PSCENC =       131.04973462
  Ewald energy   TEWEN  =     10480.08436154
  -Hartree energ DENC   =    -15840.68875096
  -exchange      EXHF   =         0.00000000
  -V(xc)+E(xc)   XCENC  =      -329.52797210
  PAW double counting   =      5698.64012117    -5029.20541100
  entropy T*S    EENTRO =        -0.00687148
  eigenvalues    EBANDS =      -157.27195926
  atomic energy  EATOM  =      4905.68083858
  ---------------------------------------------------
  free energy    TOTEN  =      -141.24590888 eV

  energy without entropy =     -141.23903741  energy(sigma->0) =     -141.24247314


--------------------------------------------------------------------------------------------------------




----------------------------------------- Iteration    1(   8)  ---------------------------------------


    POTLOK:  cpu time    0.10: real time    0.10
    SETDIJ:  cpu time    0.10: real time    0.10
     EDDAV:  cpu time    4.58: real time    4.58
       DOS:  cpu time    0.00: real time    0.00
    CHARGE:  cpu time    0.37: real time    0.37
    MIXING:  cpu time    0.00: real time    0.00
    --------------------------------------------
      LOOP:  cpu time    5.15: real time    5.16

 eigenvalue-minimisations  :  3120
 total energy-change (2. order) : 0.1536697E+00  (-0.7980933E-01)
 number of electron      99.0000002 magnetization 
 augmentation part        6.3465086 magnetization 

 Broyden mixing:
  rms(total) = 0.13136E+00    rms(broyden)= 0.13131E+00
  rms(prec ) = 0.14079E+00
  weight for this iteration     100.00

 eigenvalues of (default mixing * dielectric matrix)
  average eigenvalue GAMMA=   1.3615
  2.3970  0.9091  0.7783

 Free energy of the ion-electron system (eV)
  ---------------------------------------------------
  alpha Z        PSCENC =       131.04973462
  Ewald energy   TEWEN  =     10480.08436154
  -Hartree energ DENC   =    -15847.65977280
  -exchange      EXHF   =         0.00000000
  -V(xc)+E(xc)   XCENC  =      -328.63707557
  PAW double counting   =      6130.14828065    -5460.33251757
  entropy T*S    EENTRO =        -0.00682141
  eigenvalues    EBANDS =      -151.41926727
  atomic energy  EATOM  =      4905.68083858
  ---------------------------------------------------
  free energy    TOTEN  =      -141.09223923 eV

  energy without entropy =     -141.08541782  energy(sigma->0) =     -141.08882852


--------------------------------------------------------------------------------------------------------




----------------------------------------- Iteration    1(   9)  ---------------------------------------


    POTLOK:  cpu time    0.10: real time    0.10
    SETDIJ:  cpu time    0.10: real time    0.10
     EDDAV:  cpu time    4.66: real time    4.67
       DOS:  cpu time    0.00: real time    0.00
    CHARGE:  cpu time    0.38: real time    0.38
    MIXING:  cpu time    0.01: real time    0.01
    --------------------------------------------
      LOOP:  cpu time    5.25: real time    5.26

 eigenvalue-minimisations  :  3080
 total energy-change (2. order) : 0.4384675E-01  (-0.1684117E-01)
 number of electron      99.0000002 magnetization 
 augmentation part        6.3124440 magnetization 

 Broyden mixing:
  rms(total) = 0.65825E-01    rms(broyden)= 0.65818E-01
  rms(prec ) = 0.75948E-01
  weight for this iteration     100.00

 eigenvalues of (default mixing * dielectric matrix)
  average eigenvalue GAMMA=   1.3070
  2.4109  0.9090  0.9090  0.9991

 Free energy of the ion-electron system (eV)
  ---------------------------------------------------
  alpha Z        PSCENC =       131.04973462
  Ewald energy   TEWEN  =     10480.08436154
  -Hartree energ DENC   =    -15856.52537046
  -exchange      EXHF   =         0.00000000
  -V(xc)+E(xc)   XCENC  =      -327.95696178
  PAW double counting   =      6240.03904370    -5570.24968635
  entropy T*S    EENTRO =        -0.00709125
  eigenvalues    EBANDS =      -143.16326107
  atomic energy  EATOM  =      4905.68083858
  ---------------------------------------------------
  free energy    TOTEN  =      -141.04839248 eV

  energy without entropy =     -141.04130122  energy(sigma->0) =     -141.04484685


--------------------------------------------------------------------------------------------------------




----------------------------------------- Iteration    1(  10)  ---------------------------------------


    POTLOK:  cpu time    0.10: real time    0.10
    SETDIJ:  cpu time    0.10: real time    0.10
     EDDAV:  cpu time    4.57: real time    4.58
       DOS:  cpu time    0.00: real time    0.00
    CHARGE:  cpu time    0.37: real time    0.37
    MIXING:  cpu time    0.01: real time    0.01
    --------------------------------------------
      LOOP:  cpu time    5.16: real time    5.17

 eigenvalue-minimisations  :  3032
 total energy-change (2. order) : 0.6463430E-02  (-0.6934143E-02)
 number of electron      99.0000002 magnetization 
 augmentation part        6.2940905 magnetization 

 Broyden mixing:
  rms(total) = 0.28178E-01    rms(broyden)= 0.28152E-01
  rms(prec ) = 0.40551E-01
  weight for this iteration     100.00

 eigenvalues of (default mixing * dielectric matrix)
  average eigenvalue GAMMA=   1.3372
  2.5303  1.6288  0.9677  0.7797  0.7797

 Free energy of the ion-electron system (eV)
  ---------------------------------------------------
  alpha Z        PSCENC =       131.04973462
  Ewald energy   TEWEN  =     10480.08436154
  -Hartree energ DENC   =    -15859.10000735
  -exchange      EXHF   =         0.00000000
  -V(xc)+E(xc)   XCENC  =      -327.83299900
  PAW double counting   =      6229.90533918    -5560.13919635
  entropy T*S    EENTRO =        -0.00700949
  eigenvalues    EBANDS =      -140.68299078
  atomic energy  EATOM  =      4905.68083858
  ---------------------------------------------------
  free energy    TOTEN  =      -141.04192905 eV

  energy without entropy =     -141.03491955  energy(sigma->0) =     -141.03842430


--------------------------------------------------------------------------------------------------------




----------------------------------------- Iteration    1(  11)  ---------------------------------------


    POTLOK:  cpu time    0.10: real time    0.10
    SETDIJ:  cpu time    0.11: real time    0.11
     EDDAV:  cpu time    4.70: real time    4.71
       DOS:  cpu time    0.00: real time    0.00
    CHARGE:  cpu time    0.37: real time    0.37
    MIXING:  cpu time    0.01: real time    0.01
    --------------------------------------------
      LOOP:  cpu time    5.29: real time    5.29

 eigenvalue-minimisations  :  3176
 total energy-change (2. order) : 0.7214908E-02  (-0.1208786E-02)
 number of electron      99.0000002 magnetization 
 augmentation part        6.2891247 magnetization 

 Broyden mixing:
  rms(total) = 0.20524E-01    rms(broyden)= 0.20519E-01
  rms(prec ) = 0.37242E-01
  weight for this iteration     100.00

 eigenvalues of (default mixing * dielectric matrix)
  average eigenvalue GAMMA=   1.3374
  2.5583  2.1016  0.9039  0.9039  0.7784  0.7784

 Free energy of the ion-electron system (eV)
  ---------------------------------------------------
  alpha Z        PSCENC =       131.04973462
  Ewald energy   TEWEN  =     10480.08436154
  -Hartree energ DENC   =    -15861.83048907
  -exchange      EXHF   =         0.00000000
  -V(xc)+E(xc)   XCENC  =      -327.72437252
  PAW double counting   =      6204.09688958    -5534.34791228
  entropy T*S    EENTRO =        -0.00708876
  eigenvalues    EBANDS =      -138.03667583
  atomic energy  EATOM  =      4905.68083858
  ---------------------------------------------------
  free energy    TOTEN  =      -141.03471414 eV

  energy without entropy =     -141.02762537  energy(sigma->0) =     -141.03116976


--------------------------------------------------------------------------------------------------------




----------------------------------------- Iteration    1(  12)  ---------------------------------------


    POTLOK:  cpu time    0.10: real time    0.10
    SETDIJ:  cpu time    0.11: real time    0.11
     EDDAV:  cpu time    5.01: real time    5.02
       DOS:  cpu time    0.00: real time    0.00
    CHARGE:  cpu time    0.37: real time    0.37
    MIXING:  cpu time    0.00: real time    0.00
    --------------------------------------------
      LOOP:  cpu time    5.60: real time    5.60

 eigenvalue-minimisations  :  3472
 total energy-change (2. order) : 0.4441498E-02  (-0.4873428E-03)
 number of electron      99.0000002 magnetization 
 augmentation part        6.2873311 magnetization 

 Broyden mixing:
  rms(total) = 0.16118E-01    rms(broyden)= 0.16118E-01
  rms(prec ) = 0.31387E-01
  weight for this iteration     100.00

 eigenvalues of (default mixing * dielectric matrix)
  average eigenvalue GAMMA=   1.3628
  2.6344  2.6132  0.9758  0.9758  0.8877  0.8877  0.5649

 Free energy of the ion-electron system (eV)
  ---------------------------------------------------
  alpha Z        PSCENC =       131.04973462
  Ewald energy   TEWEN  =     10480.08436154
  -Hartree energ DENC   =    -15862.94588283
  -exchange      EXHF   =         0.00000000
  -V(xc)+E(xc)   XCENC  =      -327.70931751
  PAW double counting   =      6193.62792567    -5523.88192164
  entropy T*S    EENTRO =        -0.00711792
  eigenvalues    EBANDS =      -136.92889316
  atomic energy  EATOM  =      4905.68083858
  ---------------------------------------------------
  free energy    TOTEN  =      -141.03027264 eV

  energy without entropy =     -141.02315472  energy(sigma->0) =     -141.02671368


--------------------------------------------------------------------------------------------------------




----------------------------------------- Iteration    1(  13)  ---------------------------------------


    POTLOK:  cpu time    0.10: real time    0.10
    SETDIJ:  cpu time    0.11: real time    0.11
     EDDAV:  cpu time    5.86: real time    5.87
       DOS:  cpu time    0.00: real time    0.00
    CHARGE:  cpu time    0.37: real time    0.37
    MIXING:  cpu time    0.00: real time    0.00
    --------------------------------------------
      LOOP:  cpu time    6.45: real time    6.46

 eigenvalue-minimisations  :  4272
 total energy-change (2. order) : 0.9399593E-02  (-0.6697730E-03)
 number of electron      99.0000002 magnetization 
 augmentation part        6.2904407 magnetization 

 Broyden mixing:
  rms(total) = 0.90912E-02    rms(broyden)= 0.90879E-02
  rms(prec ) = 0.24955E-01
  weight for this iteration     100.00

 eigenvalues of (default mixing * dielectric matrix)
  average eigenvalue GAMMA=   1.3403
  2.8332  2.5070  1.1883  0.8240  0.8240  0.9410  0.9410  0.6636

 Free energy of the ion-electron system (eV)
  ---------------------------------------------------
  alpha Z        PSCENC =       131.04973462
  Ewald energy   TEWEN  =     10480.08436154
  -Hartree energ DENC   =    -15864.95086218
  -exchange      EXHF   =         0.00000000
  -V(xc)+E(xc)   XCENC  =      -327.75103164
  PAW double counting   =      6169.38895708    -5499.63586665
  entropy T*S    EENTRO =        -0.00719352
  eigenvalues    EBANDS =      -134.87981087
  atomic energy  EATOM  =      4905.68083858
  ---------------------------------------------------
  free energy    TOTEN  =      -141.02087305 eV

  energy without entropy =     -141.01367953  energy(sigma->0) =     -141.01727629


--------------------------------------------------------------------------------------------------------




----------------------------------------- Iteration    1(  14)  ---------------------------------------


    POTLOK:  cpu time    0.10: real time    0.10
    SETDIJ:  cpu time    0.10: real time    0.10
     EDDAV:  cpu time    4.84: real time    4.85
       DOS:  cpu time    0.00: real time    0.00
    CHARGE:  cpu time    0.36: real time    0.36
    MIXING:  cpu time    0.01: real time    0.01
    --------------------------------------------
      LOOP:  cpu time    5.42: real time    5.42

 eigenvalue-minimisations  :  3416
 total energy-change (2. order) : 0.4105681E-02  (-0.7962305E-03)
 number of electron      99.0000002 magnetization 
 augmentation part        6.2932628 magnetization 

 Broyden mixing:
  rms(total) = 0.11880E-01    rms(broyden)= 0.11876E-01
  rms(prec ) = 0.24117E-01
  weight for this iteration     100.00

 eigenvalues of (default mixing * dielectric matrix)
  average eigenvalue GAMMA=   1.3335
  3.0419  2.5018  1.1875  1.1875  1.0125  0.8596  0.8596  0.7361  0.6149

 Free energy of the ion-electron system (eV)
  ---------------------------------------------------
  alpha Z        PSCENC =       131.04973462
  Ewald energy   TEWEN  =     10480.08436154
  -Hartree energ DENC   =    -15866.37058582
  -exchange      EXHF   =         0.00000000
  -V(xc)+E(xc)   XCENC  =      -327.76779243
  PAW double counting   =      6167.46427752    -5497.70603581
  entropy T*S    EENTRO =        -0.00723738
  eigenvalues    EBANDS =      -133.44432820
  atomic energy  EATOM  =      4905.68083858
  ---------------------------------------------------
  free energy    TOTEN  =      -141.01676736 eV

  energy without entropy =     -141.00952998  energy(sigma->0) =     -141.01314867


--------------------------------------------------------------------------------------------------------




----------------------------------------- Iteration    1(  15)  ---------------------------------------


    POTLOK:  cpu time    0.10: real time    0.10
    SETDIJ:  cpu time    0.10: real time    0.10
     EDDAV:  cpu time    5.79: real time    5.80
       DOS:  cpu time    0.00: real time    0.00
    CHARGE:  cpu time    0.37: real time    0.37
    MIXING:  cpu time    0.01: real time    0.01
    --------------------------------------------
      LOOP:  cpu time    6.38: real time    6.39

 eigenvalue-minimisations  :  4128
 total energy-change (2. order) : 0.9802548E-02  (-0.1326791E-02)
 number of electron      99.0000002 magnetization 
 augmentation part        6.2859188 magnetization 

 Broyden mixing:
  rms(total) = 0.17939E-01    rms(broyden)= 0.17935E-01
  rms(prec ) = 0.22324E-01
  weight for this iteration     100.00

 eigenvalues of (default mixing * dielectric matrix)
  average eigenvalue GAMMA=   1.4923
  3.8615  2.7274  2.2507  0.9983  0.9983  0.9312  0.9312  0.7961  0.7961  0.6324

 Free energy of the ion-electron system (eV)
  ---------------------------------------------------
  alpha Z        PSCENC =       131.04973462
  Ewald energy   TEWEN  =     10480.08436154
  -Hartree energ DENC   =    -15871.95418669
  -exchange      EXHF   =         0.00000000
  -V(xc)+E(xc)   XCENC  =      -327.73526506
  PAW double counting   =      6164.41161478    -5494.66481179
  entropy T*S    EENTRO =        -0.00727095
  eigenvalues    EBANDS =      -127.87197986
  atomic energy  EATOM  =      4905.68083858
  ---------------------------------------------------
  free energy    TOTEN  =      -141.00696482 eV

  energy without entropy =     -140.99969386  energy(sigma->0) =     -141.00332934


--------------------------------------------------------------------------------------------------------




----------------------------------------- Iteration    1(  16)  ---------------------------------------


    POTLOK:  cpu time    0.11: real time    0.11
    SETDIJ:  cpu time    0.11: real time    0.11
     EDDAV:  cpu time    4.88: real time    4.88
       DOS:  cpu time    0.00: real time    0.00
    CHARGE:  cpu time    0.37: real time    0.37
    MIXING:  cpu time    0.01: real time    0.01
    --------------------------------------------
      LOOP:  cpu time    5.47: real time    5.48

 eigenvalue-minimisations  :  3248
 total energy-change (2. order) : 0.4039720E-02  (-0.1009794E-02)
 number of electron      99.0000002 magnetization 
 augmentation part        6.2864566 magnetization 

 Broyden mixing:
  rms(total) = 0.14457E-01    rms(broyden)= 0.14455E-01
  rms(prec ) = 0.17299E-01
  weight for this iteration     100.00

 eigenvalues of (default mixing * dielectric matrix)
  average eigenvalue GAMMA=   1.5774
  4.6924  2.8683  2.4488  1.2042  1.2042  0.9650  0.9650  0.8308  0.8308  0.6708
  0.6708

 Free energy of the ion-electron system (eV)
  ---------------------------------------------------
  alpha Z        PSCENC =       131.04973462
  Ewald energy   TEWEN  =     10480.08436154
  -Hartree energ DENC   =    -15874.31722271
  -exchange      EXHF   =         0.00000000
  -V(xc)+E(xc)   XCENC  =      -327.78802510
  PAW double counting   =      6168.96841132    -5499.21074308
  entropy T*S    EENTRO =        -0.00729509
  eigenvalues    EBANDS =      -125.46298519
  atomic energy  EATOM  =      4905.68083858
  ---------------------------------------------------
  free energy    TOTEN  =      -141.00292510 eV

  energy without entropy =     -140.99563001  energy(sigma->0) =     -140.99927755


--------------------------------------------------------------------------------------------------------




----------------------------------------- Iteration    1(  17)  ---------------------------------------


    POTLOK:  cpu time    0.10: real time    0.10
    SETDIJ:  cpu time    0.10: real time    0.10
     EDDAV:  cpu time    4.91: real time    4.92
       DOS:  cpu time    0.00: real time    0.00
    CHARGE:  cpu time    0.45: real time    0.45
    MIXING:  cpu time    0.01: real time    0.01
    --------------------------------------------
      LOOP:  cpu time    5.58: real time    5.59

 eigenvalue-minimisations  :  3344
 total energy-change (2. order) : 0.2084985E-02  (-0.1617940E-02)
 number of electron      99.0000002 magnetization 
 augmentation part        6.2894198 magnetization 

 Broyden mixing:
  rms(total) = 0.15222E-01    rms(broyden)= 0.15215E-01
  rms(prec ) = 0.16835E-01
  weight for this iteration     100.00

 eigenvalues of (default mixing * dielectric matrix)
  average eigenvalue GAMMA=   1.7952
  6.7608  3.1639  2.2747  2.2747  1.0194  1.0194  0.9912  0.9912  0.8148  0.8148
  0.7687  0.6492

 Free energy of the ion-electron system (eV)
  ---------------------------------------------------
  alpha Z        PSCENC =       131.04973462
  Ewald energy   TEWEN  =     10480.08436154
  -Hartree energ DENC   =    -15875.88473020
  -exchange      EXHF   =         0.00000000
  -V(xc)+E(xc)   XCENC  =      -327.83053069
  PAW double counting   =      6179.09755391    -5509.32686140
  entropy T*S    EENTRO =        -0.00734296
  eigenvalues    EBANDS =      -123.86386353
  atomic energy  EATOM  =      4905.68083858
  ---------------------------------------------------
  free energy    TOTEN  =      -141.00084011 eV

  energy without entropy =     -140.99349716  energy(sigma->0) =     -140.99716863


--------------------------------------------------------------------------------------------------------




----------------------------------------- Iteration    1(  18)  ---------------------------------------


    POTLOK:  cpu time    0.10: real time    0.10
    SETDIJ:  cpu time    0.10: real time    0.10
     EDDAV:  cpu time    5.22: real time    5.22
       DOS:  cpu time    0.00: real time    0.00
    CHARGE:  cpu time    0.37: real time    0.37
    MIXING:  cpu time    0.01: real time    0.01
    --------------------------------------------
      LOOP:  cpu time    5.80: real time    5.81

 eigenvalue-minimisations  :  3624
 total energy-change (2. order) : 0.1654005E-02  (-0.5004997E-03)
 number of electron      99.0000002 magnetization 
 augmentation part        6.2887268 magnetization 

 Broyden mixing:
  rms(total) = 0.12002E-01    rms(broyden)= 0.12001E-01
  rms(prec ) = 0.13005E-01
  weight for this iteration     100.00

 eigenvalues of (default mixing * dielectric matrix)
  average eigenvalue GAMMA=   1.8424
  7.9915  3.2340  2.4037  2.4037  0.9949  0.9949  1.0226  1.0226  0.8197  0.8197
  0.8916  0.6860  0.6666

 Free energy of the ion-electron system (eV)
  ---------------------------------------------------
  alpha Z        PSCENC =       131.04973462
  Ewald energy   TEWEN  =     10480.08436154
  -Hartree energ DENC   =    -15877.42872423
  -exchange      EXHF   =         0.00000000
  -V(xc)+E(xc)   XCENC  =      -327.82051778
  PAW double counting   =      6179.92944623    -5510.16209112
  entropy T*S    EENTRO =        -0.00733213
  eigenvalues    EBANDS =      -122.32490182
  atomic energy  EATOM  =      4905.68083858
  ---------------------------------------------------
  free energy    TOTEN  =      -140.99918611 eV

  energy without entropy =     -140.99185397  energy(sigma->0) =     -140.99552004


--------------------------------------------------------------------------------------------------------




----------------------------------------- Iteration    1(  19)  ---------------------------------------


    POTLOK:  cpu time    0.10: real time    0.10
    SETDIJ:  cpu time    0.10: real time    0.10
     EDDAV:  cpu time    4.94: real time    4.94
       DOS:  cpu time    0.00: real time    0.00
    CHARGE:  cpu time    0.37: real time    0.37
    MIXING:  cpu time    0.01: real time    0.01
    --------------------------------------------
      LOOP:  cpu time    5.52: real time    5.53

 eigenvalue-minimisations  :  3376
 total energy-change (2. order) : 0.7441706E-03  (-0.4934916E-03)
 number of electron      99.0000002 magnetization 
 augmentation part        6.2881328 magnetization 

 Broyden mixing:
  rms(total) = 0.35938E-02    rms(broyden)= 0.35882E-02
  rms(prec ) = 0.46395E-02
  weight for this iteration     100.00

 eigenvalues of (default mixing * dielectric matrix)
  average eigenvalue GAMMA=   1.8749
  8.0928  3.9606  2.5260  2.5260  1.0312  1.0312  1.1345  0.8243  0.8243  0.9427
  0.9427  0.9473  0.6530  0.8116

 Free energy of the ion-electron system (eV)
  ---------------------------------------------------
  alpha Z        PSCENC =       131.04973462
  Ewald energy   TEWEN  =     10480.08436154
  -Hartree energ DENC   =    -15878.20038288
  -exchange      EXHF   =         0.00000000
  -V(xc)+E(xc)   XCENC  =      -327.81021823
  PAW double counting   =      6177.52552314    -5507.76226639
  entropy T*S    EENTRO =        -0.00731403
  eigenvalues    EBANDS =      -121.55871830
  atomic energy  EATOM  =      4905.68083858
  ---------------------------------------------------
  free energy    TOTEN  =      -140.99844194 eV

  energy without entropy =     -140.99112791  energy(sigma->0) =     -140.99478492


--------------------------------------------------------------------------------------------------------




----------------------------------------- Iteration    1(  20)  ---------------------------------------


    POTLOK:  cpu time    0.10: real time    0.10
    SETDIJ:  cpu time    0.10: real time    0.10
     EDDAV:  cpu time    4.99: real time    5.00
       DOS:  cpu time    0.00: real time    0.00
    CHARGE:  cpu time    0.38: real time    0.38
    MIXING:  cpu time    0.01: real time    0.01
    --------------------------------------------
      LOOP:  cpu time    5.59: real time    5.60

 eigenvalue-minimisations  :  3448
 total energy-change (2. order) : 0.1673787E-03  (-0.1957047E-03)
 number of electron      99.0000002 magnetization 
 augmentation part        6.2871966 magnetization 

 Broyden mixing:
  rms(total) = 0.38853E-02    rms(broyden)= 0.38832E-02
  rms(prec ) = 0.42234E-02
  weight for this iteration     100.00

 eigenvalues of (default mixing * dielectric matrix)
  average eigenvalue GAMMA=   2.1388
 11.1559  5.0686  2.7990  2.4873  1.7757  1.0387  1.0387  1.0385  0.9726  0.9726
  0.8211  0.8211  0.7644  0.6792  0.6491

 Free energy of the ion-electron system (eV)
  ---------------------------------------------------
  alpha Z        PSCENC =       131.04973462
  Ewald energy   TEWEN  =     10480.08436154
  -Hartree energ DENC   =    -15878.63974186
  -exchange      EXHF   =         0.00000000
  -V(xc)+E(xc)   XCENC  =      -327.80097944
  PAW double counting   =      6175.49783574    -5505.73776032
  entropy T*S    EENTRO =        -0.00731266
  eigenvalues    EBANDS =      -121.12525076
  atomic energy  EATOM  =      4905.68083858
  ---------------------------------------------------
  free energy    TOTEN  =      -140.99827456 eV

  energy without entropy =     -140.99096190  energy(sigma->0) =     -140.99461823


--------------------------------------------------------------------------------------------------------




----------------------------------------- Iteration    1(  21)  ---------------------------------------


    POTLOK:  cpu time    0.10: real time    0.10
    SETDIJ:  cpu time    0.11: real time    0.11
     EDDAV:  cpu time    5.52: real time    5.53
       DOS:  cpu time    0.00: real time    0.00
    CHARGE:  cpu time    0.37: real time    0.37
    MIXING:  cpu time    0.01: real time    0.01
    --------------------------------------------
      LOOP:  cpu time    6.11: real time    6.12

 eigenvalue-minimisations  :  3888
 total energy-change (2. order) : 0.1219833E-03  (-0.4844455E-04)
 number of electron      99.0000002 magnetization 
 augmentation part        6.2869869 magnetization 

 Broyden mixing:
  rms(total) = 0.29173E-02    rms(broyden)= 0.29167E-02
  rms(prec ) = 0.30294E-02
  weight for this iteration     100.00

 eigenvalues of (default mixing * dielectric matrix)
  average eigenvalue GAMMA=   2.6563
 19.6725  5.5063  2.9232  2.3929  2.3176  1.0391  1.0391  1.1201  0.8263  0.8263
  0.9695  0.9695  0.8569  0.7699  0.6485  0.6228

 Free energy of the ion-electron system (eV)
  ---------------------------------------------------
  alpha Z        PSCENC =       131.04973462
  Ewald energy   TEWEN  =     10480.08436154
  -Hartree energ DENC   =    -15879.02298603
  -exchange      EXHF   =         0.00000000
  -V(xc)+E(xc)   XCENC  =      -327.79539020
  PAW double counting   =      6173.18990524    -5503.43138743
  entropy T*S    EENTRO =        -0.00731825
  eigenvalues    EBANDS =      -120.74591065
  atomic energy  EATOM  =      4905.68083858
  ---------------------------------------------------
  free energy    TOTEN  =      -140.99815257 eV

  energy without entropy =     -140.99083432  energy(sigma->0) =     -140.99449345


--------------------------------------------------------------------------------------------------------




----------------------------------------- Iteration    1(  22)  ---------------------------------------


    POTLOK:  cpu time    0.10: real time    0.10
    SETDIJ:  cpu time    0.12: real time    0.12
     EDDAV:  cpu time    4.36: real time    4.37
       DOS:  cpu time    0.00: real time    0.00
    CHARGE:  cpu time    0.37: real time    0.37
    MIXING:  cpu time    0.01: real time    0.01
    --------------------------------------------
      LOOP:  cpu time    4.96: real time    4.97

 eigenvalue-minimisations  :  2864
 total energy-change (2. order) :-0.1838073E-04  (-0.5985150E-04)
 number of electron      99.0000002 magnetization 
 augmentation part        6.2866491 magnetization 

 Broyden mixing:
  rms(total) = 0.19565E-02    rms(broyden)= 0.19560E-02
  rms(prec ) = 0.19896E-02
  weight for this iteration     100.00

 eigenvalues of (default mixing * dielectric matrix)
  average eigenvalue GAMMA=   2.6147
 20.8916  5.6110  3.0012  2.4760  2.2524  1.0346  1.0346  1.1546  0.9518  0.9518
  0.8436  0.8436  0.7863  0.7863  0.6591  0.7055  0.4663

 Free energy of the ion-electron system (eV)
  ---------------------------------------------------
  alpha Z        PSCENC =       131.04973462
  Ewald energy   TEWEN  =     10480.08436154
  -Hartree energ DENC   =    -15879.19534913
  -exchange      EXHF   =         0.00000000
  -V(xc)+E(xc)   XCENC  =      -327.79385947
  PAW double counting   =      6171.84032259    -5502.08228628
  entropy T*S    EENTRO =        -0.00731999
  eigenvalues    EBANDS =      -120.57461343
  atomic energy  EATOM  =      4905.68083858
  ---------------------------------------------------
  free energy    TOTEN  =      -140.99817096 eV

  energy without entropy =     -140.99085097  energy(sigma->0) =     -140.99451096


--------------------------------------------------------------------------------------------------------




----------------------------------------- Iteration    1(  23)  ---------------------------------------


    POTLOK:  cpu time    0.10: real time    0.10
    SETDIJ:  cpu time    0.10: real time    0.10
     EDDAV:  cpu time    4.31: real time    4.31
       DOS:  cpu time    0.00: real time    0.00
    CHARGE:  cpu time    0.37: real time    0.37
    MIXING:  cpu time    0.01: real time    0.01
    --------------------------------------------
      LOOP:  cpu time    4.89: real time    4.90

 eigenvalue-minimisations  :  2800
 total energy-change (2. order) :-0.1449864E-04  (-0.1992142E-04)
 number of electron      99.0000002 magnetization 
 augmentation part        6.2868088 magnetization 

 Broyden mixing:
  rms(total) = 0.21526E-02    rms(broyden)= 0.21524E-02
  rms(prec ) = 0.21857E-02
  weight for this iteration     100.00

 eigenvalues of (default mixing * dielectric matrix)
  average eigenvalue GAMMA=   2.4996
 20.9051  5.3716  3.0734  2.5082  2.2235  1.0403  1.0403  1.0802  0.9582  0.9582
  0.8336  0.8336  0.7892  0.7892  0.6483  0.6327  0.6531  0.6531

 Free energy of the ion-electron system (eV)
  ---------------------------------------------------
  alpha Z        PSCENC =       131.04973462
  Ewald energy   TEWEN  =     10480.08436154
  -Hartree energ DENC   =    -15879.11719853
  -exchange      EXHF   =         0.00000000
  -V(xc)+E(xc)   XCENC  =      -327.79630559
  PAW double counting   =      6171.28705059    -5501.52800410
  entropy T*S    EENTRO =        -0.00732172
  eigenvalues    EBANDS =      -120.65134084
  atomic energy  EATOM  =      4905.68083858
  ---------------------------------------------------
  free energy    TOTEN  =      -140.99818545 eV

  energy without entropy =     -140.99086373  energy(sigma->0) =     -140.99452459


--------------------------------------------------------------------------------------------------------




----------------------------------------- Iteration    1(  24)  ---------------------------------------


    POTLOK:  cpu time    0.10: real time    0.10
    SETDIJ:  cpu time    0.10: real time    0.10
     EDDAV:  cpu time    3.15: real time    3.16
       DOS:  cpu time    0.00: real time    0.00
    --------------------------------------------
      LOOP:  cpu time    3.36: real time    3.37

 eigenvalue-minimisations  :  1736
 total energy-change (2. order) : 0.9822561E-06  (-0.8816288E-06)
 number of electron      99.0000002 magnetization 
 augmentation part        6.2868088 magnetization 

 Free energy of the ion-electron system (eV)
  ---------------------------------------------------
  alpha Z        PSCENC =       131.04973462
  Ewald energy   TEWEN  =     10480.08436154
  -Hartree energ DENC   =    -15879.10838542
  -exchange      EXHF   =         0.00000000
  -V(xc)+E(xc)   XCENC  =      -327.79664470
  PAW double counting   =      6171.18890437    -5501.42969769
  entropy T*S    EENTRO =        -0.00732134
  eigenvalues    EBANDS =      -120.65997444
  atomic energy  EATOM  =      4905.68083858
  ---------------------------------------------------
  free energy    TOTEN  =      -140.99818447 eV

  energy without entropy =     -140.99086314  energy(sigma->0) =     -140.99452380


--------------------------------------------------------------------------------------------------------




 average (electrostatic) potential at core
  the test charge radii are     0.7215  1.0714  1.0406
  (the norm of the test charge is              1.0000)
       1 -69.6907       2 -68.9904       3 -68.9504       4 -68.9404       5 -68.9494
       6 -68.9677       7 -69.6921       8 -68.9684       9 -68.9394      10 -68.9922
      11 -34.6879      12 -34.6528      13 -34.6883      14 -34.7081      15 -34.6540
      16 -34.6644      17 -34.6653      18 -34.6528      19 -34.7100      20 -75.9898
      21 -75.5988      22 -76.0390      23 -75.9668      24 -75.5982      25 -75.9669
      26 -76.0392
 
 
 
 E-fermi :   4.8256     XC(G=0): -10.2908     alpha+bet :-12.4397


 k-point     1 :       0.0000    0.0000    0.0000
  band No.  band energies     occupation 
      1     -13.5879      2.00000
      2     -13.5860      2.00000
      3     -13.1114      2.00000
      4     -13.0275      2.00000
      5     -12.8897      2.00000
      6     -12.7247      2.00000
      7     -12.5489      2.00000
      8     -12.3821      2.00000
      9     -12.2417      2.00000
     10     -12.1369      2.00000
     11      -5.0437      2.00000
     12      -4.7266      2.00000
     13      -4.2366      2.00000
     14      -3.4515      2.00000
     15      -2.5163      2.00000
     16      -1.6615      2.00000
     17      -0.9312      2.00000
     18      -0.5442      2.00000
     19      -0.3887      2.00000
     20       0.1502      2.00000
[...]
     53       5.8740      0.00000
     54       6.1710      0.00000
     55       6.5854      0.00000
     56       6.6619      0.00000
     57       7.4949      0.00000
     58       7.6296      0.00000
     59       8.1601      0.00000
     60       8.7343      0.00000
     61       8.9414      0.00000
     62       9.6050      0.00000
     63       9.8524      0.00000
     64      10.0687      0.00000

 k-point    19 :       0.3077    0.2308   -0.0000
  band No.  band energies     occupation 
      1     -12.8430      2.00000
      2     -12.8422      2.00000
      3     -12.0345      2.00000
      4     -12.0069      2.00000
      5     -11.9792      2.00000
      6     -11.9419      2.00000
      7     -11.9018      2.00000
      8     -11.8644      2.00000
      9     -11.8290      2.00000
     10     -11.8145      2.00000
     11      -0.4220      2.00000
     12      -0.4026      2.00000
     13      -0.1201      2.00000
     14      -0.0680      2.00000
     15      -0.0152      2.00000
     16       0.0748      2.00000
     17       0.2175      2.00000
     18       0.2766      2.00000
     19       0.3408      2.00000
     20       0.3703      2.00000
     21       0.4275      2.00000
     22       0.5471      2.00000
     23       0.7682      2.00000
     24       0.8164      2.00000
     25       0.9774      2.00000
     26       1.2347      2.00000
     27       1.4050      2.00000
     28       1.4220      2.00000
     29       1.4386      2.00000
     30       1.6048      2.00000
     31       1.6263      2.00000
     32       1.7630      2.00000
     33       1.8188      2.00000
     34       1.9402      2.00000
     35       1.9951      2.00000
     36       2.1207      2.00000
     37       2.2002      2.00000
     38       2.3623      2.00000
     39       2.4949      2.00000
     40       2.5804      2.00000
     41       2.6618      2.00000
     42       2.7494      2.00000
     43       2.8185      2.00000
     44       2.8493      2.00000
     45       2.9508      2.00000
     46       3.0735      2.00000
     47       3.4180      2.00000
     48       3.7295      2.00000
     49       4.0743      2.00000
     50       4.6310      2.00000
     51       4.7895      1.99600
     52       4.9275      0.30602
     53       5.2103      0.00000
     54       5.6375      0.00000
     55       5.7801      0.00000
     56       6.3265      0.00000
     57       6.9097      0.00000
     58       7.2946      0.00000
     59       7.4656      0.00000
     60       8.1682      0.00000
     61       8.5896      0.00000
     62       8.8182      0.00000
     63       9.7256      0.00000
     64       9.7738      0.00000

 k-point    20 :       0.3846    0.2308    0.0000
  band No.  band energies     occupation 
      1     -12.8078      2.00000
      2     -12.8071      2.00000
      3     -11.9459      2.00000
      4     -11.9287      2.00000
      5     -11.9163      2.00000
      6     -11.8986      2.00000
      7     -11.8772      2.00000
      8     -11.8573      2.00000
      9     -11.8346      2.00000
     10     -11.8280      2.00000
     11      -0.2134      2.00000
     12      -0.2098      2.00000
     13      -0.0313      2.00000
     14      -0.0201      2.00000
     15       0.0204      2.00000
     16       0.1988      2.00000
     17       0.3900      2.00000
     18       0.3931      2.00000
     19       0.4413      2.00000
     20       0.4832      2.00000
     21       0.7043      2.00000
     22       0.7073      2.00000
     23       1.2464      2.00000
     24       1.2713      2.00000
     25       1.3479      2.00000
     26       1.3580      2.00000
     27       1.3957      2.00000
     28       1.4269      2.00000
     29       1.4325      2.00000
     30       1.4923      2.00000
     31       1.5652      2.00000
     32       1.6495      2.00000
     33       1.7334      2.00000
     34       1.8398      2.00000
     35       1.8689      2.00000
     36       2.0309      2.00000
     37       2.2041      2.00000
     38       2.2778      2.00000
     39       2.3953      2.00000
     40       2.4072      2.00000
     41       2.4774      2.00000
     42       2.5090      2.00000
     43       2.6478      2.00000
     44       2.7517      2.00000
     45       2.8178      2.00000
     46       2.8236      2.00000
     47       2.9607      2.00000
     48       3.1120      2.00000
     49       3.9500      2.00000
     50       4.4384      2.00000
     51       4.5318      2.00000
     52       4.8419      1.83733
     53       5.0284      0.00011
     54       5.4500      0.00000
     55       5.5290      0.00000
     56       6.3582      0.00000
     57       6.5263      0.00000
     58       6.7943      0.00000
     59       7.4428      0.00000
     60       8.1874      0.00000
     61       8.2705      0.00000
     62       8.8109      0.00000
     63       9.4798      0.00000
     64       9.6656      0.00000

 k-point    21 :       0.3077    0.3077   -0.0000
  band No.  band energies     occupation 
      1     -12.7926      2.00000
      2     -12.7919      2.00000
      3     -11.9136      2.00000
      4     -11.8985      2.00000
      5     -11.8897      2.00000
      6     -11.8778      2.00000
      7     -11.8626      2.00000
      8     -11.8503      2.00000
      9     -11.8332      2.00000
     10     -11.8302      2.00000
     11      -0.0797      2.00000
     12      -0.0795      2.00000
     13       0.1876      2.00000
     14       0.1909      2.00000
     15       0.3304      2.00000
     16       0.3469      2.00000
     17       0.4583      2.00000
     18       0.4767      2.00000
     19       0.5505      2.00000
     20       0.6479      2.00000
     21       0.7092      2.00000
     22       0.8397      2.00000
     23       0.9420      2.00000
     24       0.9638      2.00000
     25       1.1125      2.00000
     26       1.1437      2.00000
     27       1.1508      2.00000
     28       1.2293      2.00000
     29       1.3385      2.00000
     30       1.3829      2.00000
     31       1.5207      2.00000
     32       1.5633      2.00000
     33       1.5996      2.00000
     34       1.7435      2.00000
     35       2.1423      2.00000
     36       2.3693      2.00000
     37       2.4735      2.00000
     38       2.5647      2.00000
     39       2.5967      2.00000
     40       2.6398      2.00000
     41       2.6399      2.00000
     42       2.6855      2.00000
     43       2.7801      2.00000
     44       2.8177      2.00000
     45       2.8238      2.00000
     46       2.9564      2.00000
     47       3.1907      2.00000
     48       3.1924      2.00000
     49       3.6144      2.00000
     50       3.6487      2.00000
     51       3.8933      2.00000
     52       4.2863      2.00000
     53       4.6847      2.00000
     54       5.2845      0.00000
     55       5.5536      0.00000
     56       5.9149      0.00000
     57       6.5719      0.00000
     58       6.6823      0.00000
     59       7.0792      0.00000
     60       7.8119      0.00000
     61       8.2188      0.00000
     62       8.3054      0.00000
     63       9.5170      0.00000
     64       9.8716      0.00000


--------------------------------------------------------------------------------------------------------


 soft charge-density along one line, spin component           1
         0         1         2         3         4         5         6         7         8         9
 total charge-density along one line
 
 pseudopotential strength for first ion, spin component:           1
 12.108   0.000 -14.726   0.000  -0.000   0.000   0.022   0.000   0.000   0.000   0.000   0.000  -0.028   0.000  -0.000   0.000
-14.726   0.000  17.929   0.000   0.000   0.000  -0.028   0.000  -0.000   0.000  -0.000   0.000   0.035   0.000   0.000   0.000
 -0.000   0.000   0.000   0.000  -8.205   0.000  -0.000   0.000   0.000   0.000   9.801   0.000   0.000   0.000  -0.000   0.000
  0.022   0.000  -0.028   0.000  -0.000   0.000  -8.268   0.000   0.000   0.000   0.000   0.000   9.885   0.000  -0.000   0.000
  0.000   0.000  -0.000   0.000   0.000   0.000   0.000   0.000  -8.205   0.000  -0.000   0.000  -0.000   0.000   9.801   0.000
  0.000   0.000  -0.000   0.000   9.801   0.000   0.000   0.000  -0.000   0.000 -11.541   0.000  -0.000   0.000   0.000   0.000
 -0.028   0.000   0.035   0.000   0.000   0.000   9.885   0.000  -0.000   0.000  -0.000   0.000 -11.653   0.000   0.000   0.000
 -0.000   0.000   0.000   0.000  -0.000   0.000  -0.000   0.000   9.801   0.000   0.000   0.000   0.000   0.000 -11.541   0.000
 total augmentation occupancy for first ion, spin component:           1
  2.636   0.376   0.000  -0.076  -0.000   0.000  -0.032  -0.000
  0.376   0.076   0.000  -0.071  -0.000   0.000  -0.016  -0.000
  0.000   0.000   2.120  -0.000   0.000   0.231  -0.000   0.000
 -0.076  -0.071  -0.000   2.234   0.000  -0.000   0.313   0.000
 -0.000  -0.000   0.000   0.000   2.120   0.000   0.000   0.231
  0.000   0.000   0.231  -0.000   0.000   0.028  -0.000   0.000
 -0.032  -0.016  -0.000   0.313   0.000  -0.000   0.048   0.000
 -0.000  -0.000   0.000   0.000   0.231   0.000   0.000   0.028


------------------------ aborting loop because EDIFF is reached ----------------------------------------


    CHARGE:  cpu time    0.37: real time    0.37
    FORLOC:  cpu time    0.03: real time    0.03
    FORNL :  cpu time    3.01: real time    3.02
    STRESS:  cpu time    4.19: real time    4.19
    FORCOR:  cpu time    0.14: real time    0.14
    FORHAR:  cpu time    0.06: real time    0.06
    MIXING:  cpu time    0.00: real time    0.00
    OFIELD:  cpu time    0.00: real time    0.00

  FORCE on cell =-STRESS in cart. coord.  units (eV):
  Direction    XX          YY          ZZ          XY          YZ          ZX
  --------------------------------------------------------------------------------------
  Alpha Z   131.04973   131.04973   131.04973
  Ewald   13946.92837 13946.92871-16527.43013    -0.00003    -0.00000    -0.00015
  Hartree 15801.26587 15801.26578-14840.13559    -0.00000    -0.00000     0.00004
  E(xc)    -413.31891  -413.31892  -413.38029    -0.00000     0.00000    -0.00000
  Local  -30973.32329-30973.32276 30152.53881    -0.00019    -0.00000     0.00005
  n-local   -60.09562   -75.30696   -59.62240     3.15691    -1.36483     4.70450
  augment    60.74772    60.74747    58.85319     0.00018     0.00000     0.00000
  Kinetic  1519.27641  1498.06848  1477.82641    -1.46393    -0.59239     1.08489
  Fock        0.00000     0.00000     0.00000     0.00000     0.00000     0.00000
  -------------------------------------------------------------------------------------
  Total      -5.67909    -5.67909   -20.30027     0.00000    -0.00000    -0.00000
  in kB     -28.25506   -28.25504  -100.99947     0.00000    -0.00000    -0.00000
  external pressure =      -52.50 kB  Pullay stress =        0.00 kB


 VOLUME and BASIS-vectors are now :
 -----------------------------------------------------------------------------
  energy-cutoff  :      520.00
  volume of cell :      322.03
      direct lattice vectors                 reciprocal lattice vectors
     2.600457673 -1.501374484  0.000000000     0.384547693  0.000000000 -0.000000000
     0.000000000  3.002748968  0.000000000     0.192273847  0.333028172 -0.000000000
     0.000000000 -0.000000000 41.240546117     0.000000000  0.000000000  0.024247982

  length of vectors
     3.002749648  3.002748968 41.240546117     0.384547693  0.384547781  0.024247982


 FORCES acting on ions
    electron-ion (+dipol)            ewald-force                    non-local-force                 convergence-correction
 -----------------------------------------------------------------------------------------------
   0.217E-05 -.430E-06 0.120E+04   0.234E-04 -.260E-04 -.120E+04   -.145E-15 0.106E-16 -.900E+01   -.154E-09 0.233E-09 -.386E-02
   0.106E-02 -.184E-02 0.939E+03   0.557E-04 -.952E-04 -.939E+03   0.220E-18 -.121E-19 0.299E-01   0.268E-08 -.461E-08 0.108E-01
   -.846E-08 0.149E-08 0.402E+03   -.108E-06 0.124E-06 -.402E+03   0.435E-18 -.680E-19 0.256E-01   -.418E-09 0.953E-09 0.338E-01
   0.107E-02 -.185E-02 0.135E+03   0.545E-04 -.944E-04 -.135E+03   -.632E-18 0.122E-18 -.343E-01   -.289E-08 0.519E-08 0.236E-02
   0.856E-08 -.143E-08 -.402E+03   0.116E-06 -.134E-06 0.402E+03   -.456E-18 0.600E-19 -.270E-01   0.308E-09 -.818E-09 -.664E-01
   0.107E-02 -.185E-02 -.670E+03   0.543E-04 -.941E-04 0.671E+03   0.150E-18 -.514E-19 0.977E-02   0.323E-08 -.600E-08 -.495E-01
   -.217E-05 0.429E-06 -.120E+04   -.234E-04 0.261E-04 0.120E+04   0.157E-15 -.453E-16 0.900E+01   0.601E-09 -.866E-09 -.157E-03
   -.107E-02 0.185E-02 0.670E+03   -.543E-04 0.941E-04 -.671E+03   -.212E-18 0.187E-19 -.127E-01   -.429E-08 0.789E-08 0.317E-01
   -.107E-02 0.185E-02 -.135E+03   -.545E-04 0.944E-04 0.135E+03   0.648E-18 -.123E-18 0.350E-01   0.412E-08 -.745E-08 -.431E-01
   -.106E-02 0.184E-02 -.939E+03   -.557E-04 0.952E-04 0.939E+03   -.265E-18 0.878E-18 -.265E-01   -.156E-08 0.267E-08 -.192E-01
   0.143E-07 -.650E-08 0.268E+03   -.332E-07 0.377E-07 -.268E+03   0.895E-19 0.792E-19 0.530E-02   -.169E-09 0.259E-09 0.698E-02
   0.572E-08 -.711E-08 0.112E-01   -.513E-08 0.574E-08 -.483E-02   0.120E-19 -.269E-21 0.665E-03   0.563E-11 -.134E-11 -.700E-02
   -.197E-07 0.771E-08 -.268E+03   0.500E-07 -.565E-07 0.268E+03   -.170E-18 -.513E-19 -.726E-02   0.202E-09 -.312E-09 -.110E-01
   0.465E-04 -.780E-04 0.361E+03   -.518E-04 0.858E-04 -.361E+03   0.115E-17 -.698E-17 0.100E+00   0.332E-09 -.611E-09 0.406E-03
   0.418E-04 -.724E-04 0.895E+02   -.468E-04 0.812E-04 -.896E+02   -.250E-18 0.113E-18 -.116E-01   -.171E-09 0.303E-09 0.746E-02
   0.419E-04 -.725E-04 -.179E+03   -.469E-04 0.812E-04 0.179E+03   0.534E-19 -.376E-20 0.929E-02   -.648E-09 0.109E-08 -.205E-01
   -.419E-04 0.725E-04 0.179E+03   0.469E-04 -.812E-04 -.179E+03   -.792E-19 0.357E-20 -.884E-02   0.625E-09 -.103E-08 0.120E-01
   -.418E-04 0.724E-04 -.895E+02   0.468E-04 -.812E-04 0.895E+02   0.199E-18 -.518E-20 0.128E-01   0.937E-10 -.192E-09 -.199E-01
   -.465E-04 0.780E-04 -.361E+03   0.518E-04 -.858E-04 0.361E+03   -.593E-17 0.698E-17 -.104E+00   0.270E-09 -.434E-09 -.218E-02
   -.263E-09 0.592E-09 -.124E-01   0.106E-09 -.101E-09 -.197E-02   0.664E-21 -.348E-20 0.235E-03   -.216E-11 -.172E-12 0.141E-01
   -.411E-06 -.324E-07 0.668E+03   0.184E-05 -.167E-05 -.662E+03   -.844E-16 0.299E-16 -.529E+01   0.267E-11 0.119E-12 -.739E-03
   0.150E-04 -.258E-04 0.437E+03   -.221E-05 0.347E-05 -.437E+03   0.143E-16 -.139E-16 0.132E+00   -.208E-10 0.258E-10 0.712E-02
   -.143E-04 0.247E-04 0.212E+03   0.201E-05 -.329E-05 -.212E+03   0.217E-18 -.146E-16 0.765E-01   0.123E-10 -.180E-10 0.143E-01
   0.411E-06 0.326E-07 -.668E+03   -.184E-05 0.167E-05 0.662E+03   0.982E-16 0.256E-16 0.529E+01   0.556E-11 -.775E-11 0.178E-02
   0.143E-04 -.247E-04 -.212E+03   -.201E-05 0.329E-05 0.212E+03   -.716E-17 0.111E-16 -.765E-01   0.167E-10 -.181E-10 0.939E-02
   -.150E-04 0.258E-04 -.437E+03   0.221E-05 -.347E-05 0.437E+03   0.135E-16 0.535E-19 -.132E+00   -.972E-11 0.174E-10 0.440E-02
 -----------------------------------------------------------------------------------------------
   -.877E-08 0.285E-08 0.976E-01   0.392E-15 -.121E-13 -.284E-12   0.418E-16 0.443E-17 -.105E-01   0.218E-08 -.374E-08 -.867E-01
 
 
 POSITION                                       TOTAL-FORCE (eV/Angst)
 -----------------------------------------------------------------------------------
      0.00000     -0.00000     10.41015        -0.000000      0.000000     -0.005495
      0.86682      1.50138     12.84134         0.000000     -0.000000      0.003762
      0.00000     -0.00000     17.90053         0.000000     -0.000000      0.017076
      0.86682      1.50138     20.43159        -0.000000      0.000000     -0.019798
      0.00000     -0.00000     25.48767        -0.000000      0.000000     -0.018015
      0.86682      1.50138     28.01658         0.000000     -0.000000      0.003860
      0.00000     -0.00000     32.97785         0.000000     -0.000000      0.007829
      1.73364     -0.00000     15.37155        -0.000000      0.000000     -0.004612
      1.73364     -0.00000     22.95664         0.000000     -0.000000      0.019173
      1.73364     -0.00000     30.54653         0.000000      0.000000     -0.000575
      0.00000     -0.00000     14.10608         0.000000     -0.000000      0.016656
      0.00000     -0.00000     21.69406        -0.000000      0.000000      0.000061
      0.00000     -0.00000     29.28210        -0.000000      0.000000     -0.017800
      1.73364     -0.00000     11.57443         0.000000     -0.000000      0.011493
      1.73364     -0.00000     19.16705        -0.000000      0.000000     -0.018029
      1.73364     -0.00000     26.75121         0.000000     -0.000000      0.010476
      0.86682      1.50138     16.63689        -0.000000      0.000000     -0.009074
      0.86682      1.50138     24.22105         0.000000     -0.000000      0.018942
      0.86682      1.50138     31.81384        -0.000000      0.000000     -0.014864
      0.00000     -0.00000      1.07379        -0.000000      0.000000     -0.000061
      0.00000     -0.00000      8.66892         0.000000     -0.000000      0.005055
      1.73364     -0.00000      6.19562         0.000000      0.000000      0.000639
      0.86682      1.50138      3.59179         0.000000     -0.000000      0.004345
      0.00000     -0.00000     34.71918        -0.000000      0.000000     -0.005856
      1.73364     -0.00000     39.79638        -0.000000      0.000000     -0.004697
      0.86682      1.50138     37.19249        -0.000000      0.000000     -0.000490
 -----------------------------------------------------------------------------------
    total drift:                               -0.000000     -0.000000      0.000404


--------------------------------------------------------------------------------------------------------



  FREE ENERGIE OF THE ION-ELECTRON SYSTEM (eV)
  ---------------------------------------------------
  free  energy   TOTEN  =      -141.02703706 eV

  energy  without entropy=     -141.02211603  energy(sigma->0) =     -141.02457654
 
 d Force = 0.3147754E-04[-0.227E-04, 0.856E-04]  d Energy = 0.1065889E-04 0.208E-04
 d Force =-0.4779873E+01[-0.478E+01,-0.478E+01]  d Ewald  =-0.4779873E+01 0.883E-07


--------------------------------------------------------------------------------------------------------


    POTLOK:  cpu time    0.22: real time    0.22


--------------------------------------------------------------------------------------------------------




--------------------------------------------------------------------------------------------------------


  
 reached required accuracy - stopping structural energy minimisation
     LOOP+:  cpu time   33.46: real time   33.50
    4ORBIT:  cpu time    0.00: real time    0.00

 total amount of memory used by VASP on root node   146966. kBytes
========================================================================

   base      :      30000. kBytes
   nonl-proj :      15301. kBytes
   fftplans  :      55170. kBytes
   grid      :      22118. kBytes
   one-center:         56. kBytes
   wavefun   :      24321. kBytes
 
  
  
 General timing and accounting informations for this job:
 ========================================================
  
                  Total CPU time used (sec):     1578.308
                            User time (sec):     1558.926
                          System time (sec):       19.382
                         Elapsed time (sec):     1580.624
  
                   Maximum memory used (kb):      251120.
                   Average memory used (kb):           0.
  
                          Minor page faults:       430350
                          Major page faults:            0
                 Voluntary context switches:          258
