       N       E                     dE             d eps       ncg     rms          rms(c)
DAV:   1     0.536564955332E+03    0.53656E+03   -0.43857E+04  2712   0.133E+03
DAV:   2    -0.927999836963E+02   -0.62936E+03   -0.59482E+03  3464   0.264E+02
DAV:   3    -0.156836288734E+03   -0.64036E+02   -0.63665E+02  3144   0.909E+01
DAV:   4    -0.157957158499E+03   -0.11209E+01   -0.11188E+01  3176   0.131E+01
DAV:   5    -0.157981796101E+03   -0.24638E-01   -0.24629E-01  3232   0.190E+00    0.237E+01
DAV:   6    -0.140474633495E+03    0.17507E+02   -0.92105E+01  3072   0.327E+01    0.788E+00
DAV:   7    -0.140437247629E+03    0.37386E-01   -0.32498E+00  3000   0.615E+00    0.496E+00
DAV:   8    -0.140259376910E+03    0.17787E+00   -0.78697E-01  3040   0.442E+00    0.140E+00
DAV:   9    -0.140214239135E+03    0.45138E-01   -0.13866E-01  3144   0.189E+00    0.705E-01
DAV:  10    -0.140206134153E+03    0.81050E-02   -0.68219E-02  3040   0.884E-01    0.327E-01
DAV:  11    -0.140196923466E+03    0.92107E-02   -0.17779E-02  3128   0.719E-01    0.263E-01
DAV:  12    -0.140191167612E+03    0.57559E-02   -0.57694E-03  3400   0.468E-01    0.187E-01
DAV:  13    -0.140177485015E+03    0.13683E-01   -0.14974E-02  4264   0.109E+00    0.120E-01
DAV:  14    -0.140172759202E+03    0.47258E-02   -0.11866E-02  3216   0.643E-01    0.192E-01
DAV:  15    -0.140161410549E+03    0.11349E-01   -0.16650E-02  3800   0.128E+00    0.211E-01
DAV:  16    -0.140155260904E+03    0.61496E-02   -0.98016E-03  3464   0.102E+00    0.154E-01
DAV:  17    -0.140151776845E+03    0.34841E-02   -0.17916E-02  3376   0.111E+00    0.132E-01
DAV:  18    -0.140150121344E+03    0.16555E-02   -0.83131E-03  3368   0.754E-01    0.837E-02
DAV:  19    -0.140148940497E+03    0.11808E-02   -0.31235E-03  3424   0.616E-01    0.390E-02
DAV:  20    -0.140148114786E+03    0.82571E-03   -0.27635E-03  4200   0.780E-01    0.507E-02
DAV:  21    -0.140148315417E+03   -0.20063E-03   -0.34540E-03  3008   0.305E-01    0.633E-02
DAV:  22    -0.140148327423E+03   -0.12006E-04   -0.68874E-04  2952   0.984E-02    0.526E-02
DAV:  23    -0.140148285197E+03    0.42226E-04   -0.22836E-04  2960   0.586E-02    0.217E-02
DAV:  24    -0.140148283331E+03    0.18664E-05   -0.41863E-05  2520   0.253E-02
   1 F= -.14014828E+03 E0= -.14014663E+03  d E =-.140148E+03
       N       E                     dE             d eps       ncg     rms          rms(c)
DAV:   1    -0.140145348625E+03    0.29366E-02   -0.16083E+00  2832   0.467E+00    0.267E-01
DAV:   2    -0.140148942609E+03   -0.35940E-02   -0.60013E-02  3008   0.746E-01    0.208E-01
DAV:   3    -0.140147715265E+03    0.12273E-02   -0.15295E-03  3056   0.196E-01    0.135E-01
DAV:   4    -0.140147053316E+03    0.66195E-03   -0.15621E-03  3040   0.182E-01    0.645E-02
DAV:   5    -0.140146682563E+03    0.37075E-03   -0.55592E-04  3120   0.139E-01    0.276E-02
DAV:   6    -0.140146495025E+03    0.18754E-03   -0.21187E-04  3104   0.950E-02    0.172E-02
DAV:   7    -0.140146388329E+03    0.10670E-03   -0.11535E-04  3328   0.775E-02    0.130E-02
DAV:   8    -0.140146284020E+03    0.10431E-03   -0.73694E-05  3200   0.785E-02    0.102E-02
DAV:   9    -0.140146221054E+03    0.62966E-04   -0.56332E-05  2992   0.617E-02    0.902E-03
DAV:  10    -0.140146135288E+03    0.85767E-04   -0.62612E-05  3240   0.114E-01    0.101E-02
DAV:  11    -0.140146103492E+03    0.31796E-04   -0.99485E-05  3096   0.822E-02    0.568E-03
DAV:  12    -0.140146081718E+03    0.21773E-04   -0.54337E-05  2824   0.798E-02    0.719E-03
DAV:  13    -0.140146056496E+03    0.25222E-04   -0.29829E-05  2528   0.932E-02    0.397E-03
DAV:  14    -0.140146045725E+03    0.10771E-04   -0.42279E-05  2720   0.842E-02    0.372E-03
DAV:  15    -0.140146047876E+03   -0.21509E-05   -0.53709E-05  2472   0.410E-02
   2 F= -.14014605E+03 E0= -.14014410E+03  d E =0.223545E-02
       N       E                     dE             d eps       ncg     rms          rms(c)
DAV:   1    -0.140151870450E+03   -0.58247E-02   -0.49315E-01  2720   0.259E+00    0.149E-01
DAV:   2    -0.140152905650E+03   -0.10352E-02   -0.17977E-02  2992   0.416E-01    0.115E-01
DAV:   3    -0.140152495015E+03    0.41064E-03   -0.49437E-04  3096   0.112E-01    0.739E-02
DAV:   4    -0.140152283153E+03    0.21186E-03   -0.44608E-04  3064   0.100E-01    0.361E-02
DAV:   5    -0.140152167219E+03    0.11593E-03   -0.15469E-04  3032   0.783E-02    0.154E-02
DAV:   6    -0.140152107703E+03    0.59516E-04   -0.72702E-05  3008   0.579E-02    0.933E-03
DAV:   7    -0.140152066277E+03    0.41426E-04   -0.39279E-05  2920   0.550E-02    0.673E-03
DAV:   8    -0.140152038437E+03    0.27839E-04   -0.31015E-05  2744   0.461E-02    0.600E-03
DAV:   9    -0.140152021456E+03    0.16982E-04   -0.16531E-05  2280   0.349E-02    0.557E-03
DAV:  10    -0.140152002011E+03    0.19444E-04   -0.12491E-05  2168   0.531E-02    0.555E-03
DAV:  11    -0.140151990710E+03    0.11301E-04   -0.29542E-05  2488   0.511E-02    0.296E-03
DAV:  12    -0.140151984347E+03    0.63628E-05   -0.17863E-05  2120   0.422E-02
   3 F= -.14015198E+03 E0= -.14015020E+03  d E =-.370102E-02
       N       E                     dE             d eps       ncg     rms          rms(c)
DAV:   1    -0.140153410625E+03   -0.14199E-02   -0.89076E-02  2760   0.121E+00    0.547E-02
DAV:   2    -0.140153595156E+03   -0.18453E-03   -0.25065E-03  3040   0.179E-01    0.362E-02
DAV:   3    -0.140153549592E+03    0.45564E-04   -0.89681E-05  2872   0.315E-02    0.220E-02
DAV:   4    -0.140153539073E+03    0.10518E-04   -0.22232E-05  2352   0.201E-02    0.142E-02
DAV:   5    -0.140153527631E+03    0.11443E-04   -0.10036E-05  1760   0.228E-02    0.623E-03
DAV:   6    -0.140153518976E+03    0.86543E-05   -0.75076E-06  1752   0.282E-02
   4 F= -.14015352E+03 E0= -.14015177E+03  d E =-.153463E-02
       N       E                     dE             d eps       ncg     rms          rms(c)
DAV:   1    -0.140154783455E+03   -0.12558E-02   -0.80295E-01  2696   0.362E+00    0.162E-01
DAV:   2    -0.140156301510E+03   -0.15181E-02   -0.21542E-02  3032   0.518E-01    0.101E-01
DAV:   3    -0.140155979300E+03    0.32221E-03   -0.67924E-04  2968   0.870E-02    0.643E-02
DAV:   4    -0.140155881436E+03    0.97864E-04   -0.18815E-04  3088   0.620E-02    0.425E-02
DAV:   5    -0.140155773249E+03    0.10819E-03   -0.94083E-05  3072   0.683E-02    0.179E-02
DAV:   6    -0.140155696955E+03    0.76293E-04   -0.65855E-05  3040   0.711E-02    0.925E-03
DAV:   7    -0.140155652424E+03    0.44532E-04   -0.46484E-05  2672   0.483E-02    0.839E-03
DAV:   8    -0.140155582451E+03    0.69972E-04   -0.15243E-05  2216   0.660E-02    0.751E-03
DAV:   9    -0.140155455348E+03    0.12710E-03   -0.95797E-05  3448   0.148E-01    0.141E-02
DAV:  10    -0.140155436388E+03    0.18960E-04   -0.92158E-05  2736   0.516E-02    0.122E-02
DAV:  11    -0.140155394156E+03    0.42232E-04   -0.25894E-05  2568   0.856E-02    0.637E-03
DAV:  12    -0.140155346243E+03    0.47913E-04   -0.15896E-04  4072   0.193E-01    0.129E-02
DAV:  13    -0.140155356712E+03   -0.10469E-04   -0.17734E-04  2736   0.488E-02    0.132E-02
DAV:  14    -0.140155356045E+03    0.66621E-06   -0.12626E-05  1688   0.147E-02
   5 F= -.14015536E+03 E0= -.14015368E+03  d E =-.337170E-02
       N       E                     dE             d eps       ncg     rms          rms(c)
DAV:   1    -0.140156184143E+03   -0.82743E-03   -0.25690E-02  2784   0.625E-01    0.301E-02
DAV:   2    -0.140156229639E+03   -0.45496E-04   -0.66908E-04  3000   0.935E-02    0.162E-02
DAV:   3    -0.140156221920E+03    0.77193E-05   -0.25044E-05  2352   0.212E-02    0.106E-02
DAV:   4    -0.140156219997E+03    0.19229E-05   -0.66222E-06  1712   0.123E-02    0.692E-03
DAV:   5    -0.140156218135E+03    0.18618E-05   -0.36763E-06  1632   0.114E-02    0.302E-03
DAV:   6    -0.140156217342E+03    0.79278E-06   -0.19892E-06  1568   0.868E-03
   6 F= -.14015622E+03 E0= -.14015458E+03  d E =-.861297E-03
       N       E                     dE             d eps       ncg     rms          rms(c)
DAV:   1    -0.140157961926E+03   -0.17438E-02   -0.23129E-01  2736   0.187E+00    0.846E-02
DAV:   2    -0.140158369506E+03   -0.40758E-03   -0.58842E-03  2992   0.271E-01    0.474E-02
DAV:   3    -0.140158302888E+03    0.66618E-04   -0.16400E-04  3008   0.579E-02    0.312E-02
DAV:   4    -0.140158283645E+03    0.19243E-04   -0.53808E-05  3000   0.378E-02    0.209E-02
DAV:   5    -0.140158263294E+03    0.20350E-04   -0.16318E-05  2280   0.346E-02    0.927E-03
DAV:   6    -0.140158248347E+03    0.14947E-04   -0.15780E-05  2120   0.375E-02    0.406E-03
DAV:   7    -0.140158239946E+03    0.84010E-05   -0.13110E-05  1808   0.266E-02
   7 F= -.14015824E+03 E0= -.14015668E+03  d E =-.288390E-02
       N       E                     dE             d eps       ncg     rms          rms(c)
DAV:   1    -0.140158584485E+03   -0.33614E-03   -0.92517E-01  2736   0.376E+00    0.169E-01
DAV:   2    -0.140160159057E+03   -0.15746E-02   -0.23542E-02  3000   0.543E-01    0.925E-02
DAV:   3    -0.140159928434E+03    0.23062E-03   -0.59628E-04  3016   0.119E-01    0.613E-02
DAV:   4    -0.140159838390E+03    0.90044E-04   -0.22816E-04  3096   0.836E-02    0.386E-02
DAV:   5    -0.140159750841E+03    0.87549E-04   -0.67835E-05  2984   0.734E-02    0.174E-02
DAV:   6    -0.140159678741E+03    0.72100E-04   -0.56126E-05  2992   0.765E-02    0.873E-03
DAV:   7    -0.140159633901E+03    0.44840E-04   -0.43915E-05  2664   0.574E-02    0.881E-03
DAV:   8    -0.140159547780E+03    0.86121E-04   -0.17453E-05  2288   0.900E-02    0.653E-03
DAV:   9    -0.140159402637E+03    0.14514E-03   -0.13669E-04  3648   0.188E-01    0.122E-02
DAV:  10    -0.140159365147E+03    0.37490E-04   -0.13581E-04  3000   0.958E-02    0.106E-02
DAV:  11    -0.140159326342E+03    0.38806E-04   -0.61039E-05  3120   0.118E-01    0.525E-03
DAV:  12    -0.140159302554E+03    0.23788E-04   -0.64779E-05  3224   0.147E-01    0.511E-03
DAV:  13    -0.140159315658E+03   -0.13104E-04   -0.16335E-04  2856   0.634E-02    0.785E-03
DAV:  14    -0.140159317540E+03   -0.18818E-05   -0.26940E-05  2216   0.181E-02
   8 F= -.14015932E+03 E0= -.14015780E+03  d E =-.396149E-02
       N       E                     dE             d eps       ncg     rms          rms(c)
DAV:   1    -0.140160423257E+03   -0.11076E-02   -0.15034E-01  2728   0.167E+00    0.617E-02
DAV:   2    -0.140160637594E+03   -0.21434E-03   -0.32833E-03  2992   0.240E-01    0.348E-02
DAV:   3    -0.140160609061E+03    0.28533E-04   -0.10610E-04  3096   0.486E-02    0.250E-02
DAV:   4    -0.140160589066E+03    0.19995E-04   -0.31420E-05  2664   0.286E-02    0.141E-02
DAV:   5    -0.140160572521E+03    0.16545E-04   -0.26580E-05  2680   0.411E-02    0.821E-03
DAV:   6    -0.140160569712E+03    0.28086E-05   -0.17473E-05  1928   0.247E-02
   9 F= -.14016057E+03 E0= -.14015904E+03  d E =-.125217E-02
       N       E                     dE             d eps       ncg     rms          rms(c)
DAV:   1    -0.140160880883E+03   -0.30836E-03   -0.21800E-01  2704   0.201E+00    0.728E-02
DAV:   2    -0.140161203537E+03   -0.32265E-03   -0.49146E-03  3000   0.291E-01    0.429E-02
DAV:   3    -0.140161155591E+03    0.47946E-04   -0.13021E-04  3096   0.543E-02    0.308E-02
DAV:   4    -0.140161117375E+03    0.38216E-04   -0.62926E-05  3136   0.434E-02    0.159E-02
DAV:   5    -0.140161092714E+03    0.24661E-04   -0.35408E-05  2800   0.513E-02    0.106E-02
DAV:   6    -0.140161086791E+03    0.59231E-05   -0.34488E-05  2344   0.366E-02
  10 F= -.14016109E+03 E0= -.14015953E+03  d E =-.176925E-02
       N       E                     dE             d eps       ncg     rms          rms(c)
DAV:   1    -0.140161681797E+03   -0.58908E-03   -0.73179E-01  2696   0.363E+00    0.119E-01
DAV:   2    -0.140163144773E+03   -0.14630E-02   -0.16513E-02  2880   0.501E-01    0.673E-02
DAV:   3    -0.140163024357E+03    0.12042E-03   -0.17049E-04  3248   0.704E-02    0.445E-02
DAV:   4    -0.140162930679E+03    0.93678E-04   -0.31122E-04  3040   0.101E-01    0.147E-02
DAV:   5    -0.140162926064E+03    0.46146E-05   -0.10056E-04  2904   0.456E-02    0.122E-02
DAV:   6    -0.140162911947E+03    0.14117E-04   -0.29621E-05  2504   0.320E-02    0.694E-03
DAV:   7    -0.140162893551E+03    0.18397E-04   -0.45467E-06  1728   0.329E-02    0.762E-03
DAV:   8    -0.140162875725E+03    0.17825E-04   -0.87289E-06  1848   0.335E-02    0.531E-03
DAV:   9    -0.140162842745E+03    0.32980E-04   -0.19308E-05  2296   0.666E-02    0.497E-03
DAV:  10    -0.140162794610E+03    0.48135E-04   -0.90021E-05  3464   0.147E-01    0.993E-03
DAV:  11    -0.140162793913E+03    0.69715E-06   -0.10888E-04  2776   0.588E-02    0.499E-03
DAV:  12    -0.140162791982E+03    0.19309E-05   -0.10202E-05  1768   0.387E-02
  11 F= -.14016279E+03 E0= -.14016124E+03  d E =-.170519E-02
       N       E                     dE             d eps       ncg     rms          rms(c)
DAV:   1    -0.140162574124E+03    0.21979E-03   -0.37464E-01  2728   0.259E+00    0.838E-02
DAV:   2    -0.140163307557E+03   -0.73343E-03   -0.83049E-03  2888   0.354E-01    0.474E-02
DAV:   3    -0.140163248455E+03    0.59101E-04   -0.84271E-05  3208   0.476E-02    0.317E-02
DAV:   4    -0.140163200943E+03    0.47513E-04   -0.16091E-04  3000   0.742E-02    0.967E-03
DAV:   5    -0.140163200695E+03    0.24722E-06   -0.53277E-05  2696   0.309E-02    0.929E-03
DAV:   6    -0.140163193584E+03    0.71110E-05   -0.18047E-05  1944   0.235E-02
  12 F= -.14016319E+03 E0= -.14016166E+03  d E =-.210679E-02
       N       E                     dE             d eps       ncg     rms          rms(c)
DAV:   1    -0.140164264750E+03   -0.10641E-02   -0.56290E-01  2688   0.320E+00    0.992E-02
DAV:   2    -0.140165293897E+03   -0.10291E-02   -0.11666E-02  2960   0.430E-01    0.594E-02
DAV:   3    -0.140165221482E+03    0.72414E-04   -0.15603E-04  3168   0.657E-02    0.415E-02
DAV:   4    -0.140165174960E+03    0.46522E-04   -0.24098E-04  3104   0.891E-02    0.162E-02
DAV:   5    -0.140165174763E+03    0.19783E-06   -0.76157E-05  2896   0.383E-02    0.146E-02
DAV:   6    -0.140165171105E+03    0.36574E-05   -0.19835E-05  1920   0.200E-02
  13 F= -.14016517E+03 E0= -.14016368E+03  d E =-.197752E-02
       N       E                     dE             d eps       ncg     rms          rms(c)
DAV:   1    -0.140163750228E+03    0.14245E-02   -0.16688E+00  2688   0.551E+00    0.174E-01
DAV:   2    -0.140166795449E+03   -0.30452E-02   -0.34741E-02  2952   0.743E-01    0.102E-01
DAV:   3    -0.140166583636E+03    0.21181E-03   -0.49228E-04  3168   0.116E-01    0.709E-02
DAV:   4    -0.140166448648E+03    0.13499E-03   -0.71524E-04  3104   0.156E-01    0.285E-02
DAV:   5    -0.140166450658E+03   -0.20093E-05   -0.23273E-04  3040   0.684E-02    0.269E-02
DAV:   6    -0.140166439227E+03    0.11430E-04   -0.69617E-05  2752   0.375E-02    0.107E-02
DAV:   7    -0.140166435150E+03    0.40773E-05   -0.15733E-05  1968   0.227E-02
  14 F= -.14016644E+03 E0= -.14016502E+03  d E =-.324157E-02
       N       E                     dE             d eps       ncg     rms          rms(c)
DAV:   1    -0.140167162889E+03   -0.72366E-03   -0.38350E-01  2688   0.267E+00    0.907E-02
DAV:   2    -0.140167939846E+03   -0.77696E-03   -0.87531E-03  2992   0.370E-01    0.460E-02
DAV:   3    -0.140167895717E+03    0.44130E-04   -0.13133E-04  3240   0.560E-02    0.317E-02
DAV:   4    -0.140167868042E+03    0.27674E-04   -0.88665E-05  3040   0.564E-02    0.130E-02
DAV:   5    -0.140167862966E+03    0.50765E-05   -0.34974E-05  2504   0.358E-02    0.911E-03
DAV:   6    -0.140167858365E+03    0.46005E-05   -0.15389E-05  1696   0.275E-02
  15 F= -.14016786E+03 E0= -.14016647E+03  d E =-.142322E-02
       N       E                     dE             d eps       ncg     rms          rms(c)
DAV:   1    -0.140163584609E+03    0.42784E-02   -0.34499E+00  2688   0.802E+00    0.272E-01
DAV:   2    -0.140170630408E+03   -0.70458E-02   -0.79121E-02  2992   0.111E+00    0.139E-01
DAV:   3    -0.140170255040E+03    0.37537E-03   -0.11903E-03  3232   0.165E-01    0.958E-02
DAV:   4    -0.140170026799E+03    0.22824E-03   -0.85178E-04  3104   0.167E-01    0.385E-02
DAV:   5    -0.140170002709E+03    0.24090E-04   -0.29344E-04  3192   0.927E-02    0.280E-02
DAV:   6    -0.140169975775E+03    0.26934E-04   -0.13183E-04  3056   0.654E-02    0.143E-02
DAV:   7    -0.140169958581E+03    0.17193E-04   -0.21847E-05  2280   0.388E-02    0.121E-02
DAV:   8    -0.140169935058E+03    0.23523E-04   -0.13899E-05  2072   0.455E-02    0.611E-03
DAV:   9    -0.140169901353E+03    0.33706E-04   -0.27554E-05  2456   0.748E-02    0.759E-03
DAV:  10    -0.140169862324E+03    0.39029E-04   -0.31640E-05  2520   0.959E-02    0.415E-03
DAV:  11    -0.140169831354E+03    0.30969E-04   -0.67319E-05  3160   0.120E-01    0.579E-03
DAV:  12    -0.140169821407E+03    0.99472E-05   -0.73466E-05  2944   0.990E-02
  16 F= -.14016982E+03 E0= -.14016853E+03  d E =-.338626E-02
       N       E                     dE             d eps       ncg     rms          rms(c)
DAV:   1    -0.140170285242E+03   -0.45389E-03   -0.11664E+00  2704   0.473E+00    0.152E-01
DAV:   2    -0.140172536091E+03   -0.22508E-02   -0.25310E-02  3000   0.651E-01    0.810E-02
DAV:   3    -0.140172397903E+03    0.13819E-03   -0.43077E-04  3232   0.101E-01    0.563E-02
DAV:   4    -0.140172287982E+03    0.10992E-03   -0.20951E-04  3136   0.950E-02    0.253E-02
DAV:   5    -0.140172255206E+03    0.32776E-04   -0.13110E-04  3104   0.807E-02    0.174E-02
DAV:   6    -0.140172244647E+03    0.10559E-04   -0.10831E-04  2880   0.608E-02    0.110E-02
DAV:   7    -0.140172237403E+03    0.72444E-05   -0.16680E-05  2056   0.278E-02
  17 F= -.14017224E+03 E0= -.14017098E+03  d E =-.241600E-02
       N       E                     dE             d eps       ncg     rms          rms(c)
DAV:   1    -0.140170002899E+03    0.22417E-02   -0.18785E+00  2688   0.602E+00    0.192E-01
DAV:   2    -0.140173633643E+03   -0.36307E-02   -0.40665E-02  3008   0.827E-01    0.102E-01
DAV:   3    -0.140173398800E+03    0.23484E-03   -0.63666E-04  3200   0.127E-01    0.708E-02
DAV:   4    -0.140173195711E+03    0.20309E-03   -0.31968E-04  3136   0.133E-01    0.306E-02
DAV:   5    -0.140173132668E+03    0.63043E-04   -0.25238E-04  3128   0.115E-01    0.215E-02
DAV:   6    -0.140173111707E+03    0.20961E-04   -0.18060E-04  2912   0.775E-02    0.145E-02
DAV:   7    -0.140173091662E+03    0.20045E-04   -0.22872E-05  2280   0.385E-02    0.112E-02
DAV:   8    -0.140173066033E+03    0.25629E-04   -0.10938E-05  2032   0.472E-02    0.707E-03
DAV:   9    -0.140173032906E+03    0.33127E-04   -0.39919E-05  2744   0.798E-02    0.532E-03
DAV:  10    -0.140173021783E+03    0.11123E-04   -0.29247E-05  2400   0.469E-02    0.526E-03
DAV:  11    -0.140173006273E+03    0.15510E-04   -0.14658E-05  2104   0.649E-02    0.431E-03
DAV:  12    -0.140172996160E+03    0.10114E-04   -0.21812E-05  2184   0.641E-02    0.403E-03
DAV:  13    -0.140172989799E+03    0.63610E-05   -0.44969E-05  2560   0.559E-02
  18 F= -.14017299E+03 E0= -.14017177E+03  d E =-.316839E-02
       N       E                     dE             d eps       ncg     rms          rms(c)
DAV:   1    -0.140170805051E+03    0.21911E-02   -0.20503E+00  2688   0.618E+00    0.210E-01
DAV:   2    -0.140175121819E+03   -0.43168E-02   -0.47356E-02  2872   0.847E-01    0.108E-01
DAV:   3    -0.140174866010E+03    0.25581E-03   -0.54803E-04  3272   0.107E-01    0.727E-02
DAV:   4    -0.140174700214E+03    0.16580E-03   -0.43356E-04  3016   0.114E-01    0.257E-02
DAV:   5    -0.140174684210E+03    0.16003E-04   -0.17641E-04  3000   0.610E-02    0.155E-02
DAV:   6    -0.140174664627E+03    0.19583E-04   -0.51603E-05  2840   0.385E-02    0.103E-02
DAV:   7    -0.140174650437E+03    0.14190E-04   -0.71208E-06  1744   0.257E-02    0.711E-03
DAV:   8    -0.140174630530E+03    0.19907E-04   -0.21421E-05  2216   0.403E-02    0.534E-03
DAV:   9    -0.140174610591E+03    0.19939E-04   -0.76306E-06  1816   0.368E-02    0.534E-03
DAV:  10    -0.140174576723E+03    0.33867E-04   -0.30147E-05  2680   0.752E-02    0.741E-03
DAV:  11    -0.140174544314E+03    0.32409E-04   -0.68571E-05  3416   0.125E-01    0.539E-03
DAV:  12    -0.140174547609E+03   -0.32955E-05   -0.10213E-04  2760   0.607E-02    0.538E-03
DAV:  13    -0.140174548972E+03   -0.13626E-05   -0.29721E-05  2232   0.204E-02
  19 F= -.14017455E+03 E0= -.14017335E+03  d E =-.155917E-02
       N       E                     dE             d eps       ncg     rms          rms(c)
DAV:   1    -0.140173706232E+03    0.84138E-03   -0.59411E-01  2688   0.332E+00    0.113E-01
DAV:   2    -0.140174961909E+03   -0.12557E-02   -0.13686E-02  2880   0.454E-01    0.574E-02
DAV:   3    -0.140174892789E+03    0.69121E-04   -0.15153E-04  3256   0.557E-02    0.388E-02
DAV:   4    -0.140174848336E+03    0.44453E-04   -0.12146E-04  3008   0.611E-02    0.134E-02
DAV:   5    -0.140174845896E+03    0.24394E-05   -0.49772E-05  2680   0.312E-02    0.855E-03
DAV:   6    -0.140174841177E+03    0.47191E-05   -0.15397E-05  1856   0.209E-02
  20 F= -.14017484E+03 E0= -.14017366E+03  d E =-.185138E-02
       N       E                     dE             d eps       ncg     rms          rms(c)
DAV:   1    -0.140176262531E+03   -0.14166E-02   -0.29750E-01  2736   0.239E+00    0.815E-02
DAV:   2    -0.140176771005E+03   -0.50847E-03   -0.65542E-03  2968   0.340E-01    0.486E-02
DAV:   3    -0.140176721896E+03    0.49109E-04   -0.21288E-04  3192   0.707E-02    0.361E-02
DAV:   4    -0.140176685109E+03    0.36787E-04   -0.81348E-05  2872   0.433E-02    0.186E-02
DAV:   5    -0.140176659895E+03    0.25214E-04   -0.32612E-05  2728   0.525E-02    0.106E-02
DAV:   6    -0.140176648324E+03    0.11570E-04   -0.40689E-05  2560   0.558E-02    0.585E-03
DAV:   7    -0.140176647680E+03    0.64405E-06   -0.36363E-05  2520   0.308E-02
  21 F= -.14017665E+03 E0= -.14017544E+03  d E =-.180650E-02
       N       E                     dE             d eps       ncg     rms          rms(c)
DAV:   1    -0.140176825208E+03   -0.17688E-03   -0.23926E-01  2712   0.214E+00    0.732E-02
DAV:   2    -0.140177211017E+03   -0.38581E-03   -0.52093E-03  3000   0.307E-01    0.427E-02
DAV:   3    -0.140177162690E+03    0.48327E-04   -0.20194E-04  3232   0.736E-02    0.320E-02
DAV:   4    -0.140177122406E+03    0.40284E-04   -0.52153E-05  2872   0.415E-02    0.175E-02
DAV:   5    -0.140177078153E+03    0.44253E-04   -0.37872E-05  2808   0.704E-02    0.979E-03
DAV:   6    -0.140177054676E+03    0.23476E-04   -0.46865E-05  2776   0.684E-02    0.681E-03
DAV:   7    -0.140177041021E+03    0.13655E-04   -0.39306E-05  2424   0.564E-02    0.774E-03
DAV:   8    -0.140177028836E+03    0.12185E-04   -0.99474E-06  1680   0.373E-02    0.441E-03
DAV:   9    -0.140177006071E+03    0.22765E-04   -0.26381E-05  2432   0.855E-02    0.532E-03
DAV:  10    -0.140177003224E+03    0.28467E-05   -0.29771E-05  2392   0.346E-02
  22 F= -.14017700E+03 E0= -.14017577E+03  d E =-.216205E-02
       N       E                     dE             d eps       ncg     rms          rms(c)
DAV:   1    -0.140177234101E+03   -0.22803E-03   -0.43207E-01  2704   0.288E+00    0.875E-02
DAV:   2    -0.140178103905E+03   -0.86980E-03   -0.97524E-03  3000   0.400E-01    0.528E-02
DAV:   3    -0.140178041640E+03    0.62265E-04   -0.13038E-04  3136   0.605E-02    0.367E-02
DAV:   4    -0.140177997455E+03    0.44185E-04   -0.24633E-04  3088   0.909E-02    0.158E-02
DAV:   5    -0.140177996223E+03    0.12324E-05   -0.76639E-05  2792   0.392E-02    0.169E-02
DAV:   6    -0.140177992588E+03    0.36347E-05   -0.98419E-06  1640   0.141E-02
  23 F= -.14017799E+03 E0= -.14017675E+03  d E =-.989364E-03
       N       E                     dE             d eps       ncg     rms          rms(c)
DAV:   1    -0.140177319305E+03    0.67692E-03   -0.61204E-01  2704   0.343E+00    0.107E-01
DAV:   2    -0.140178569745E+03   -0.12504E-02   -0.14124E-02  3000   0.483E-01    0.635E-02
DAV:   3    -0.140178480810E+03    0.88935E-04   -0.21376E-04  3144   0.777E-02    0.443E-02
DAV:   4    -0.140178419974E+03    0.60836E-04   -0.30557E-04  3080   0.986E-02    0.190E-02
DAV:   5    -0.140178413024E+03    0.69500E-05   -0.93085E-05  2976   0.472E-02    0.191E-02
DAV:   6    -0.140178404437E+03    0.85866E-05   -0.27920E-05  2328   0.254E-02
  24 F= -.14017840E+03 E0= -.14017714E+03  d E =-.140121E-02
       N       E                     dE             d eps       ncg     rms          rms(c)
DAV:   1    -0.140178421450E+03   -0.84256E-05   -0.73972E-01  2888   0.359E+00    0.107E-01
DAV:   2    -0.140179753924E+03   -0.13325E-02   -0.15849E-02  3048   0.494E-01    0.663E-02
DAV:   3    -0.140179612994E+03    0.14093E-03   -0.25541E-04  3088   0.882E-02    0.461E-02
DAV:   4    -0.140179488295E+03    0.12470E-03   -0.20170E-04  3144   0.106E-01    0.194E-02
DAV:   5    -0.140179453195E+03    0.35100E-04   -0.18680E-04  3136   0.889E-02    0.174E-02
DAV:   6    -0.140179452667E+03    0.52800E-06   -0.69835E-05  2768   0.339E-02
  25 F= -.14017945E+03 E0= -.14017816E+03  d E =-.104823E-02
       N       E                     dE             d eps       ncg     rms          rms(c)
DAV:   1    -0.140179380002E+03    0.73193E-04   -0.54689E-02  2928   0.977E-01    0.345E-02
DAV:   2    -0.140179455005E+03   -0.75003E-04   -0.11976E-03  3056   0.140E-01    0.187E-02
DAV:   3    -0.140179431971E+03    0.23034E-04   -0.31343E-05  2584   0.424E-02    0.142E-02
DAV:   4    -0.140179410963E+03    0.21008E-04   -0.15920E-05  2136   0.416E-02    0.835E-03
DAV:   5    -0.140179386783E+03    0.24180E-04   -0.25272E-05  2496   0.665E-02    0.532E-03
DAV:   6    -0.140179384226E+03    0.25569E-05   -0.45314E-05  2480   0.360E-02
  26 F= -.14017938E+03 E0= -.14017809E+03  d E =-.979788E-03
       N       E                     dE             d eps       ncg     rms          rms(c)
DAV:   1    -0.140179389585E+03   -0.28026E-05   -0.18112E-02  2824   0.562E-01    0.178E-02
DAV:   2    -0.140179419017E+03   -0.29432E-04   -0.37795E-04  3064   0.767E-02    0.110E-02
DAV:   3    -0.140179415622E+03    0.33951E-05   -0.67661E-06  1688   0.126E-02    0.725E-03
DAV:   4    -0.140179413223E+03    0.23989E-05   -0.52503E-06  1664   0.124E-02    0.250E-03
DAV:   5    -0.140179412952E+03    0.27189E-06   -0.28775E-06  1608   0.880E-03    0.203E-03
DAV:   6    -0.140179412835E+03    0.11639E-06   -0.10870E-06  1544   0.621E-03
  27 F= -.14017941E+03 E0= -.14017812E+03  d E =-.100840E-02
       N       E                     dE             d eps       ncg     rms          rms(c)
DAV:   1    -0.140178694850E+03    0.71810E-03   -0.74232E-01  2776   0.374E+00    0.113E-01
DAV:   2    -0.140180193090E+03   -0.14982E-02   -0.16735E-02  3048   0.523E-01    0.670E-02
DAV:   3    -0.140180078378E+03    0.11471E-03   -0.21261E-04  3112   0.715E-02    0.456E-02
DAV:   4    -0.140179977367E+03    0.10101E-03   -0.21945E-04  3120   0.974E-02    0.161E-02
DAV:   5    -0.140179960145E+03    0.17222E-04   -0.12685E-04  3080   0.540E-02    0.150E-02
DAV:   6    -0.140179947277E+03    0.12868E-04   -0.20732E-05  1904   0.224E-02    0.716E-03
DAV:   7    -0.140179920887E+03    0.26390E-04   -0.24081E-05  2264   0.336E-02    0.959E-03
DAV:   8    -0.140179900910E+03    0.19977E-04   -0.80505E-06  1784   0.334E-02    0.125E-02
DAV:   9    -0.140179849975E+03    0.50934E-04   -0.59726E-05  3144   0.105E-01    0.965E-03
DAV:  10    -0.140179821410E+03    0.28565E-04   -0.79706E-05  3200   0.939E-02    0.107E-02
DAV:  11    -0.140179805963E+03    0.15447E-04   -0.52129E-05  2792   0.739E-02    0.963E-03
DAV:  12    -0.140179798067E+03    0.78954E-05   -0.21535E-05  2200   0.645E-02
  28 F= -.14017980E+03 E0= -.14017849E+03  d E =-.385232E-03
       N       E                     dE             d eps       ncg     rms          rms(c)
DAV:   1    -0.140179792790E+03    0.13172E-04   -0.40514E-02  2880   0.872E-01    0.270E-02
DAV:   2    -0.140179876169E+03   -0.83378E-04   -0.94644E-04  3056   0.124E-01    0.173E-02
DAV:   3    -0.140179868798E+03    0.73708E-05   -0.13176E-05  1896   0.192E-02    0.116E-02
DAV:   4    -0.140179862092E+03    0.67060E-05   -0.16862E-05  1696   0.258E-02    0.372E-03
DAV:   5    -0.140179861441E+03    0.65029E-06   -0.89445E-06  1608   0.133E-02    0.374E-03
DAV:   6    -0.140179860802E+03    0.63982E-06   -0.12322E-06  1536   0.572E-03
  29 F= -.14017986E+03 E0= -.14017855E+03  d E =-.447966E-03
       N       E                     dE             d eps       ncg     rms          rms(c)
DAV:   1    -0.140180198374E+03   -0.33693E-03   -0.20933E-01  2704   0.197E+00    0.672E-02
DAV:   2    -0.140180592131E+03   -0.39376E-03   -0.51432E-03  3056   0.300E-01    0.398E-02
DAV:   3    -0.140180560066E+03    0.32065E-04   -0.17355E-04  3048   0.613E-02    0.312E-02
DAV:   4    -0.140180540988E+03    0.19078E-04   -0.50694E-05  2824   0.324E-02    0.170E-02
DAV:   5    -0.140180518804E+03    0.22184E-04   -0.37994E-05  2696   0.446E-02    0.984E-03
DAV:   6    -0.140180511157E+03    0.76465E-05   -0.18236E-05  1968   0.348E-02
  30 F= -.14018051E+03 E0= -.14017918E+03  d E =-.650356E-03
       N       E                     dE             d eps       ncg     rms          rms(c)
DAV:   1    -0.140180495162E+03    0.23642E-04   -0.32978E-02  2744   0.785E-01    0.299E-02
DAV:   2    -0.140180562575E+03   -0.67413E-04   -0.96793E-04  3056   0.132E-01    0.194E-02
DAV:   3    -0.140180551827E+03    0.10748E-04   -0.33941E-05  2592   0.297E-02    0.147E-02
DAV:   4    -0.140180542954E+03    0.88734E-05   -0.13605E-05  1752   0.198E-02    0.716E-03
DAV:   5    -0.140180530201E+03    0.12753E-04   -0.15839E-05  1912   0.369E-02    0.741E-03
DAV:   6    -0.140180524873E+03    0.53286E-05   -0.92979E-06  1752   0.251E-02
  31 F= -.14018052E+03 E0= -.14017919E+03  d E =-.664071E-03
       N       E                     dE             d eps       ncg     rms          rms(c)
DAV:   1    -0.140180609348E+03   -0.79146E-04   -0.68505E-02  2696   0.113E+00    0.437E-02
DAV:   2    -0.140180721666E+03   -0.11232E-03   -0.19315E-03  2944   0.177E-01    0.319E-02
DAV:   3    -0.140180680171E+03    0.41496E-04   -0.55873E-05  2920   0.442E-02    0.219E-02
DAV:   4    -0.140180628744E+03    0.51426E-04   -0.47993E-05  3008   0.470E-02    0.103E-02
DAV:   5    -0.140180597459E+03    0.31286E-04   -0.35286E-05  2848   0.451E-02    0.751E-03
DAV:   6    -0.140180560922E+03    0.36537E-04   -0.34627E-05  2608   0.583E-02    0.689E-03
DAV:   7    -0.140180537883E+03    0.23039E-04   -0.29708E-05  2528   0.441E-02    0.839E-03
DAV:   8    -0.140180513231E+03    0.24652E-04   -0.16934E-05  2232   0.433E-02    0.474E-03
DAV:   9    -0.140180483844E+03    0.29386E-04   -0.33639E-05  2832   0.852E-02    0.657E-03
DAV:  10    -0.140180477077E+03    0.67669E-05   -0.53792E-05  2728   0.552E-02
  32 F= -.14018048E+03 E0= -.14017913E+03  d E =0.477952E-04
       N       E                     dE             d eps       ncg     rms          rms(c)
DAV:   1    -0.140180626727E+03   -0.14288E-03   -0.21948E-02  2792   0.640E-01    0.262E-02
DAV:   2    -0.140180654968E+03   -0.28241E-04   -0.60449E-04  2984   0.104E-01    0.170E-02
DAV:   3    -0.140180641503E+03    0.13465E-04   -0.28415E-05  2496   0.301E-02    0.123E-02
DAV:   4    -0.140180628710E+03    0.12793E-04   -0.90992E-06  1760   0.226E-02    0.691E-03
DAV:   5    -0.140180615339E+03    0.13371E-04   -0.18105E-05  2304   0.387E-02    0.506E-03
DAV:   6    -0.140180614365E+03    0.97412E-06   -0.15971E-05  1832   0.180E-02
  33 F= -.14018061E+03 E0= -.14017928E+03  d E =-.894919E-04
       N       E                     dE             d eps       ncg     rms          rms(c)
DAV:   1    -0.140180658399E+03   -0.43060E-04   -0.69608E-02  2832   0.110E+00    0.329E-02
DAV:   2    -0.140180775766E+03   -0.11737E-03   -0.14648E-03  3048   0.156E-01    0.213E-02
DAV:   3    -0.140180760329E+03    0.15437E-04   -0.35889E-05  2712   0.329E-02    0.148E-02
DAV:   4    -0.140180744130E+03    0.16199E-04   -0.11110E-05  1720   0.285E-02    0.785E-03
DAV:   5    -0.140180732115E+03    0.12015E-04   -0.16145E-05  2096   0.380E-02    0.484E-03
DAV:   6    -0.140180726128E+03    0.59864E-05   -0.19696E-05  2088   0.384E-02
  34 F= -.14018073E+03 E0= -.14017939E+03  d E =-.111764E-03
       N       E                     dE             d eps       ncg     rms          rms(c)
DAV:   1    -0.140180721373E+03    0.10741E-04   -0.11828E-04  2560   0.543E-02    0.483E-03
DAV:   2    -0.140180720165E+03    0.12083E-05   -0.12417E-05  1616   0.172E-02    0.490E-03
DAV:   3    -0.140180719065E+03    0.11002E-05   -0.21358E-06  1608   0.670E-03    0.306E-03
DAV:   4    -0.140180716891E+03    0.21733E-05   -0.11442E-06  1608   0.882E-03    0.150E-03
DAV:   5    -0.140180713294E+03    0.35972E-05   -0.17126E-06  1664   0.194E-02    0.273E-03
DAV:   6    -0.140180708699E+03    0.45952E-05   -0.37328E-06  1688   0.342E-02
  35 F= -.14018071E+03 E0= -.14017937E+03  d E =-.943345E-04
       N       E                     dE             d eps       ncg     rms          rms(c)
DAV:   1    -0.140180670105E+03    0.43189E-04   -0.47668E-02  2744   0.930E-01    0.330E-02
DAV:   2    -0.140180777233E+03   -0.10713E-03   -0.12488E-03  2904   0.136E-01    0.218E-02
DAV:   3    -0.140180764192E+03    0.13041E-04   -0.12817E-05  1944   0.229E-02    0.147E-02
DAV:   4    -0.140180751548E+03    0.12644E-04   -0.42303E-05  2808   0.380E-02    0.578E-03
DAV:   5    -0.140180750439E+03    0.11095E-05   -0.13161E-05  1952   0.178E-02    0.472E-03
DAV:   6    -0.140180748264E+03    0.21744E-05   -0.50881E-06  1632   0.129E-02
  36 F= -.14018075E+03 E0= -.14017942E+03  d E =-.395653E-04
       N       E                     dE             d eps       ncg     rms          rms(c)
DAV:   1    -0.140180745511E+03    0.49278E-05   -0.93706E-04  2816   0.130E-01    0.559E-03
DAV:   2    -0.140180746912E+03   -0.14015E-05   -0.29890E-05  2392   0.221E-02    0.342E-03
DAV:   3    -0.140180746163E+03    0.74917E-06   -0.12541E-06  1600   0.543E-03    0.223E-03
DAV:   4    -0.140180744683E+03    0.14803E-05   -0.57837E-07  1608   0.815E-03    0.120E-03
DAV:   5    -0.140180743096E+03    0.15873E-05   -0.68686E-07  1632   0.108E-02    0.133E-03
DAV:   6    -0.140180740802E+03    0.22932E-05   -0.11169E-06  1680   0.180E-02
  37 F= -.14018074E+03 E0= -.14017941E+03  d E =-.321034E-04
       N       E                     dE             d eps       ncg     rms          rms(c)
DAV:   1    -0.140180791405E+03   -0.48309E-04   -0.14058E-02  2720   0.514E-01    0.154E-02
DAV:   2    -0.140180814696E+03   -0.23292E-04   -0.28415E-04  3056   0.702E-02    0.986E-03
DAV:   3    -0.140180811890E+03    0.28068E-05   -0.52371E-06  1712   0.135E-02    0.671E-03
DAV:   4    -0.140180809447E+03    0.24423E-05   -0.38705E-06  1720   0.141E-02    0.301E-03
DAV:   5    -0.140180808517E+03    0.93040E-06   -0.35713E-06  1672   0.132E-02    0.160E-03
DAV:   6    -0.140180808355E+03    0.16156E-06   -0.18496E-06  1576   0.683E-03
  38 F= -.14018081E+03 E0= -.14017948E+03  d E =-.675529E-04
       N       E                     dE             d eps       ncg     rms          rms(c)
DAV:   1    -0.140180808736E+03   -0.21900E-06   -0.30252E-02  2792   0.751E-01    0.232E-02
DAV:   2    -0.140180858082E+03   -0.49346E-04   -0.60945E-04  3040   0.103E-01    0.131E-02
DAV:   3    -0.140180851830E+03    0.62522E-05   -0.12912E-05  1824   0.220E-02    0.919E-03
DAV:   4    -0.140180846085E+03    0.57452E-05   -0.67242E-06  1720   0.211E-02    0.442E-03
DAV:   5    -0.140180842804E+03    0.32804E-05   -0.76456E-06  1728   0.240E-02    0.238E-03
DAV:   6    -0.140180842695E+03    0.10947E-06   -0.68917E-06  1632   0.126E-02
  39 F= -.14018084E+03 E0= -.14017952E+03  d E =-.101892E-03
       N       E                     dE             d eps       ncg     rms          rms(c)
DAV:   1    -0.140180937654E+03   -0.94850E-04   -0.47678E-03  2688   0.290E-01    0.133E-02
DAV:   2    -0.140180944095E+03   -0.64408E-05   -0.11096E-04  3024   0.434E-02    0.745E-03
DAV:   3    -0.140180942543E+03    0.15517E-05   -0.53041E-06  1728   0.144E-02    0.529E-03
DAV:   4    -0.140180940704E+03    0.18389E-05   -0.14015E-06  1656   0.131E-02    0.278E-03
DAV:   5    -0.140180938542E+03    0.21620E-05   -0.14248E-06  1672   0.183E-02    0.181E-03
DAV:   6    -0.140180937680E+03    0.86183E-06   -0.28483E-06  1632   0.127E-02
  40 F= -.14018094E+03 E0= -.14017961E+03  d E =-.949855E-04
