 vasp.5.3.5 31Mar14 (build Apr 08 2024 10:12:10) complex                        
  
 executed on             LinuxIFC date 2024.07.31  10:23:48
 running on    8 total cores
 distrk:  each k-point on    8 cores,    1 groups
 distr:  one band on NCORES_PER_BAND=   4 cores,    2 groups


--------------------------------------------------------------------------------------------------------


 INCAR:
 POTCAR:    PAW_PBE O 08Apr2002                   
 POTCAR:    PAW_PBE Mg 13Apr2007                  
 POTCAR:    PAW_PBE Al 04Jan2001                  
 POTCAR:    PAW_PBE O 08Apr2002                   
   VRHFIN =O: s2p4                                                              
   LEXCH  = PE                                                                  
   EATOM  =   432.3788 eV,   31.7789 Ry                                         
                                                                                
   TITEL  = PAW_PBE O 08Apr2002                                                 
   LULTRA =        F    use ultrasoft PP ?                                      
   IUNSCR =        1    unscreen: 0-lin 1-nonlin 2-no                           
   RPACOR =    1.200    partial core radius                                     
   POMASS =   16.000; ZVAL   =    6.000    mass and valenz                      
   RCORE  =    1.520    outmost cutoff radius                                   
   RWIGS  =    1.550; RWIGS  =    0.820    wigner-seitz radius (au A)           
   ENMAX  =  400.000; ENMIN  =  300.000 eV                                      
   ICORE  =        2    local potential                                         
   LCOR   =        T    correct aug charges                                     
   LPAW   =        T    paw PP                                                  
   EAUG   =  605.392                                                            
   DEXC   =    0.000                                                            
   RMAX   =    1.553    core radius for proj-oper                               
   RAUG   =    1.300    factor for augmentation sphere                          
   RDEP   =    1.550    radius for radial grids                                 
   RDEPT  =    1.329    core radius for aug-charge                              
                                                                                
   Atomic configuration                                                         
    4 entries                                                                   
     n  l   j            E        occ.                                          
     1  0  0.50      -514.6923   2.0000                                         
     2  0  0.50       -23.9615   2.0000                                         
     2  1  0.50        -9.0305   4.0000                                         
     3  2  1.50        -9.5241   0.0000                                         
   Description                                                                  
     l       E           TYP  RCUT    TYP  RCUT                                 
     0    -23.9615318     23  1.200                                             
     0     -9.5240782     23  1.200                                             
     1     -9.0304911     23  1.520                                             
     1      8.1634956     23  1.520                                             
     2     -9.5240782      7  1.500                                             
  local pseudopotential read in
  partial core-charges read in
  partial kinetic energy density read in
  kinetic energy density of atom read in
  atomic valenz-charges read in
  non local Contribution for L=           0  read in
    real space projection operators read in
  non local Contribution for L=           0  read in
    real space projection operators read in
  non local Contribution for L=           1  read in
    real space projection operators read in
  non local Contribution for L=           1  read in
    real space projection operators read in
    PAW grid and wavefunctions read in
 
   number of l-projection  operators is LMAX  =           4
   number of lm-projection operators is LMMAX =           8
 
 POTCAR:    PAW_PBE Mg 13Apr2007                  
   VRHFIN =Mg: s2p0                                                             
   LEXCH  = PE                                                                  
   EATOM  =    23.0369 eV,    1.6932 Ry                                         
                                                                                
   TITEL  = PAW_PBE Mg 13Apr2007                                                
   LULTRA =        F    use ultrasoft PP ?                                      
   IUNSCR =        1    unscreen: 0-lin 1-nonlin 2-no                           
   RPACOR =    1.500    partial core radius                                     
   POMASS =   24.305; ZVAL   =    2.000    mass and valenz                      
   RCORE  =    2.000    outmost cutoff radius                                   
   RWIGS  =    2.880; RWIGS  =    1.524    wigner-seitz radius (au A)           
   ENMAX  =  200.000; ENMIN  =  100.000 eV                                      
   RCLOC  =    1.506    cutoff for local pot                                    
   LCOR   =        T    correct aug charges                                     
   LPAW   =        T    paw PP                                                  
   EAUG   =  454.734                                                            
   DEXC   =    0.000                                                            
   RMAX   =    2.045    core radius for proj-oper                               
   RAUG   =    1.300    factor for augmentation sphere                          
   RDEP   =    2.025    radius for radial grids                                 
   RDEPT  =    1.942    core radius for aug-charge                              
                                                                                
   Atomic configuration                                                         
    6 entries                                                                   
     n  l   j            E        occ.                                          
     1  0  0.50     -1259.6230   2.0000                                         
     2  0  0.50       -79.8442   2.0000                                         
     2  1  1.50       -46.6121   6.0000                                         
     3  0  0.50        -4.7055   2.0000                                         
     3  1  0.50        -1.3660   0.0000                                         
     3  2  1.50        -1.3606   0.0000                                         
   Description                                                                  
     l       E           TYP  RCUT    TYP  RCUT                                 
     0     -4.7054661     23  2.000                                             
     0     27.2116520     23  2.000                                             
     1      1.3605826     23  2.000                                             
     1     27.2116520     23  2.000                                             
     2     -1.3605826     23  2.000                                             
  local pseudopotential read in
  partial core-charges read in
  partial kinetic energy density read in
  atomic valenz-charges read in
  non local Contribution for L=           0  read in
    real space projection operators read in
  non local Contribution for L=           0  read in
    real space projection operators read in
  non local Contribution for L=           1  read in
    real space projection operators read in
  non local Contribution for L=           1  read in
    real space projection operators read in
  non local Contribution for L=           2  read in
    real space projection operators read in
    PAW grid and wavefunctions read in
 
   number of l-projection  operators is LMAX  =           5
   number of lm-projection operators is LMMAX =          13
 
 POTCAR:    PAW_PBE Al 04Jan2001                  
   VRHFIN =Al: s2p1                                                             
   LEXCH  = PE                                                                  
   EATOM  =    53.5387 eV,    3.9350 Ry                                         
                                                                                
   TITEL  = PAW_PBE Al 04Jan2001                                                
   LULTRA =        F    use ultrasoft PP ?                                      
   IUNSCR =        1    unscreen: 0-lin 1-nonlin 2-no                           
   RPACOR =    1.500    partial core radius                                     
   POMASS =   26.981; ZVAL   =    3.000    mass and valenz                      
   RCORE  =    1.900    outmost cutoff radius                                   
   RWIGS  =    2.650; RWIGS  =    1.402    wigner-seitz radius (au A)           
   ENMAX  =  240.300; ENMIN  =  180.225 eV                                      
   ICORE  =        2    local potential                                         
   LCOR   =        T    correct aug charges                                     
   LPAW   =        T    paw PP                                                  
   EAUG   =  291.052                                                            
   DEXC   =    0.000                                                            
   RMAX   =    1.939    core radius for proj-oper                               
   RAUG   =    1.300    factor for augmentation sphere                          
   RDEP   =    1.966    radius for radial grids                                 
   RDEPT  =    1.856    core radius for aug-charge                              
                                                                                
   Atomic configuration                                                         
    6 entries                                                                   
     n  l   j            E        occ.                                          
     1  0  0.50     -1511.1048   2.0000                                         
     2  0  0.50      -108.1629   2.0000                                         
     2  1  1.50       -69.6402   6.0000                                         
     3  0  0.50        -7.7528   2.0000                                         
     3  1  1.50        -2.7121   1.0000                                         
     3  2  2.50        -2.7212   0.0000                                         
   Description                                                                  
     l       E           TYP  RCUT    TYP  RCUT                                 
     0     -7.7528455     23  1.900                                             
     0     -3.3096929     23  1.900                                             
     1     -2.7120682     23  1.900                                             
     1     13.6058260     23  1.900                                             
     2     -2.7211652      7  1.900                                             
  local pseudopotential read in
  partial core-charges read in
  partial kinetic energy density read in
  atomic valenz-charges read in
  non local Contribution for L=           0  read in
    real space projection operators read in
  non local Contribution for L=           0  read in
    real space projection operators read in
  non local Contribution for L=           1  read in
    real space projection operators read in
  non local Contribution for L=           1  read in
    real space projection operators read in
    PAW grid and wavefunctions read in
 
   number of l-projection  operators is LMAX  =           4
   number of lm-projection operators is LMMAX =           8
 

 ----------------------------------------------------------------------------- 
|                                                                             |
|  ADVICE TO THIS USER RUNNING 'VASP/VAMP'   (HEAR YOUR MASTER'S VOICE ...):  |
|                                                                             |
|      You have a (more or less) 'large supercell' and for larger cells       |
|      it might be more efficient to use real space projection opertators     |
|      So try LREAL= Auto  in the INCAR   file.                               |
|      Mind: At the moment your POTCAR file does not contain real space       |
|       projectors, and has to be modified,  BUT if you                       |
|      want to do an extremely  accurate calculation you might also keep the  |
|      reciprocal projection scheme          (i.e. LREAL=.FALSE.)             |
|                                                                             |
 ----------------------------------------------------------------------------- 

  PAW_PBE O 08Apr2002                   :
 energy of atom  1       EATOM= -432.3788
 kinetic energy error for atom=    0.0208 (will be added to EATOM!!)
  PAW_PBE Mg 13Apr2007                  :
 energy of atom  2       EATOM=  -23.0369
 kinetic energy error for atom=    0.0000 (will be added to EATOM!!)
  PAW_PBE Al 04Jan2001                  :
 energy of atom  3       EATOM=  -53.5387
 kinetic energy error for atom=    0.0002 (will be added to EATOM!!)
 
 
 POSCAR: Layer                                   
  positions in direct lattice
  velocities in cartesian coordinates
 exchange correlation table for  LEXCH =        8
   RHO(1)=    0.500       N(1)  =     2000
   RHO(2)=  100.500       N(2)  =     4000
 


--------------------------------------------------------------------------------------------------------


 ion  position               nearest neighbor table
   1  0.000  0.000  0.276-  21 1.74  14 2.07  14 2.07  14 2.07
   2  0.333  0.667  0.329-  11 2.13  11 2.13  11 2.13  14 2.14  14 2.14  14 2.14
   3  0.000  0.000  0.442-  17 2.13  17 2.13  17 2.13  15 2.13  15 2.13  15 2.13
   4  0.333  0.667  0.498-  15 2.13  15 2.13  15 2.13  12 2.13  12 2.13  12 2.13
   5  0.000  0.000  0.610-  16 2.13  16 2.13  16 2.13  18 2.13  18 2.13  18 2.13
   6  0.333  0.667  0.666-  13 2.13  13 2.13  13 2.13  16 2.13  16 2.13  16 2.13
   7  0.000  0.000  0.776-  24 1.74  19 2.07  19 2.07  19 2.07
   8  0.667  0.333  0.386-  11 2.13  11 2.13  11 2.13  17 2.13  17 2.13  17 2.13
   9  0.667  0.333  0.554-  18 2.13  18 2.13  18 2.13  12 2.13  12 2.13  12 2.13
  10  0.667  0.333  0.722-  13 2.13  13 2.13  13 2.13  19 2.14  19 2.14  19 2.14
  11  0.000  0.000  0.357-   2 2.13   2 2.13   2 2.13   8 2.13   8 2.13   8 2.13  17 3.03  17 3.03
                            17 3.03  14 3.04  14 3.04  14 3.04
  12  0.000  0.000  0.526-   9 2.13   9 2.13   9 2.13   4 2.13   4 2.13   4 2.13  18 3.03  18 3.03
                            18 3.03  15 3.03  15 3.03  15 3.03
  13  0.000  0.000  0.694-   6 2.13   6 2.13   6 2.13  10 2.13  10 2.13  10 2.13  16 3.03  16 3.03
                            16 3.03  19 3.03  19 3.03  19 3.03
  14  0.667  0.333  0.301-   1 2.07   1 2.07   1 2.07   2 2.14   2 2.14   2 2.14  11 3.04  11 3.04
                            11 3.04  21 3.36  21 3.36  21 3.36
  15  0.667  0.333  0.470-   3 2.13   3 2.13   3 2.13   4 2.13   4 2.13   4 2.13  17 3.03  17 3.03
                            17 3.03  12 3.03  12 3.03  12 3.03
  16  0.667  0.333  0.638-   5 2.13   5 2.13   5 2.13   6 2.13   6 2.13   6 2.13  13 3.03  13 3.03
                            13 3.03  18 3.03  18 3.03  18 3.03
  17  0.333  0.667  0.414-   8 2.13   8 2.13   8 2.13   3 2.13   3 2.13   3 2.13  11 3.03  11 3.03
                            11 3.03  15 3.03  15 3.03  15 3.03
  18  0.333  0.667  0.582-   5 2.13   5 2.13   5 2.13   9 2.13   9 2.13   9 2.13  16 3.03  16 3.03
                            16 3.03  12 3.03  12 3.03  12 3.03
  19  0.333  0.667  0.751-   7 2.07   7 2.07   7 2.07  10 2.14  10 2.14  10 2.14  13 3.03  13 3.03
                            13 3.03  24 3.36  24 3.36  24 3.36
  20  0.000  0.000  0.027-  25 2.87  25 2.87  25 2.87  23 2.87  23 2.87  23 2.87
  21  0.000  0.000  0.236-   1 1.74  22 2.81  22 2.81  22 2.81  14 3.36  14 3.36  14 3.36
  22  0.667  0.333  0.187-  21 2.81  21 2.81  21 2.81
  23  0.333  0.667  0.078-  20 2.87  20 2.87  20 2.87
  24  0.000  0.000  0.816-   7 1.74  26 2.80  26 2.80  26 2.80  19 3.36  19 3.36  19 3.36
  25  0.667  0.333  0.975-  20 2.87  20 2.87  20 2.87
  26  0.333  0.667  0.865-  24 2.80  24 2.80  24 2.80
 
  LATTYP: Found a hexagonal cell.
 ALAT       =     3.0027496481
 C/A-ratio  =    14.7611211817
  
  Lattice vectors:
  
 A1 = (   2.6004576727,  -1.5013744842,   0.0000000000)
 A2 = (   0.0000000000,   3.0027489684,   0.0000000000)
 A3 = (   0.0000000000,  -0.0000000000,  44.3239514344)


Analysis of symmetry for initial positions (statically):
=====================================================================
 Subroutine PRICEL returns:
 Original cell was already a primitive cell.
 

 Routine SETGRP: Setting up the symmetry group for a 
 hexagonal supercell.


 Subroutine GETGRP returns: Found  6 space group operations
 (whereof  6 operations were pure point group operations)
 out of a pool of 24 trial point group operations.


The static configuration has the point symmetry C_3v.


Analysis of symmetry for dynamics (positions and initial velocities):
=====================================================================
 Subroutine PRICEL returns:
 Original cell was already a primitive cell.
 

 Routine SETGRP: Setting up the symmetry group for a 
 hexagonal supercell.


 Subroutine GETGRP returns: Found  6 space group operations
 (whereof  6 operations were pure point group operations)
 out of a pool of 24 trial point group operations.


The dynamic configuration has the point symmetry C_3v.


Analysis of constrained symmetry for selective dynamics:
=====================================================================
 Subroutine PRICEL returns:
 Original cell was already a primitive cell.
 

 Routine SETGRP: Setting up the symmetry group for a 
 hexagonal supercell.


 Subroutine GETGRP returns: Found  6 space group operations
 (whereof  6 operations were pure point group operations)
 out of a pool of 24 trial point group operations.


The constrained configuration has the point symmetry C_3v.
 
 
 KPOINTS: K-Spacing Value to Generate K-Mesh: 0.02

Automatic generation of k-mesh.
Space group operators:
 irot       det(A)        alpha          n_x          n_y          n_z        tau_x        tau_y        tau_z
    1     1.000000     0.000000     1.000000     0.000000     0.000000     0.000000     0.000000     0.000000
    2     1.000000   120.000000    -0.000000    -0.000000    -1.000000     0.000000     0.000000     0.000000
    3     1.000000   120.000000     0.000000    -0.000000     1.000000     0.000000     0.000000     0.000000
    4    -1.000000   180.000000    -0.866025     0.500000     0.000000     0.000000     0.000000     0.000000
    5    -1.000000   180.000000     0.000000     1.000000     0.000000     0.000000     0.000000     0.000000
    6    -1.000000   180.000000    -0.866025    -0.500000     0.000000     0.000000     0.000000     0.000000
 
 Subroutine IBZKPT returns following result:
 ===========================================
 
 Found     21 irreducible k-points:
 
 Following reciprocal coordinates:
            Coordinates               Weight
  0.000000  0.000000  0.000000      1.000000
  0.076923  0.000000 -0.000000      6.000000
  0.153846  0.000000 -0.000000      6.000000
  0.230769  0.000000  0.000000      6.000000
  0.307692  0.000000  0.000000      6.000000
  0.384615  0.000000 -0.000000      6.000000
  0.461538  0.000000  0.000000      6.000000
  0.076923  0.076923  0.000000      6.000000
  0.153846  0.076923  0.000000     12.000000
  0.230769  0.076923  0.000000     12.000000
  0.307692  0.076923 -0.000000     12.000000
  0.384615  0.076923 -0.000000     12.000000
  0.461538  0.076923 -0.000000      6.000000
  0.153846  0.153846 -0.000000      6.000000
  0.230769  0.153846  0.000000     12.000000
  0.307692  0.153846 -0.000000     12.000000
  0.384615  0.153846 -0.000000     12.000000
  0.230769  0.230769  0.000000      6.000000
  0.307692  0.230769 -0.000000     12.000000
  0.384615  0.230769  0.000000      6.000000
  0.307692  0.307692 -0.000000      6.000000
 
 Following cartesian coordinates:
            Coordinates               Weight
  0.000000  0.000000  0.000000      1.000000
  0.029581  0.000000 -0.000000      6.000000
  0.059161  0.000000 -0.000000      6.000000
  0.088742  0.000000 -0.000000      6.000000
  0.118322  0.000000 -0.000000      6.000000
  0.147903  0.000000 -0.000000      6.000000
  0.177484  0.000000 -0.000000      6.000000
  0.044371  0.025618 -0.000000      6.000000
  0.073951  0.025618 -0.000000     12.000000
  0.103532  0.025618 -0.000000     12.000000
  0.133113  0.025618 -0.000000     12.000000
  0.162693  0.025618 -0.000000     12.000000
  0.192274  0.025618 -0.000000      6.000000
  0.088742  0.051235 -0.000000      6.000000
  0.118322  0.051235 -0.000000     12.000000
  0.147903  0.051235 -0.000000     12.000000
  0.177484  0.051235 -0.000000     12.000000
  0.133113  0.076853 -0.000000      6.000000
  0.162693  0.076853 -0.000000     12.000000
  0.192274  0.076853 -0.000000      6.000000
  0.177484  0.102470 -0.000000      6.000000
 


--------------------------------------------------------------------------------------------------------




 Dimension of arrays:
   k-points           NKPTS =     21   k-points in BZ     NKDIM =     21   number of bands    NBANDS=     64
   number of dos      NEDOS =    301   number of ions     NIONS =     26
   non local maximal  LDIM  =      5   non local SUM 2l+1 LMDIM =     13
   total plane-waves  NPLWV = 193536
   max r-space proj   IRMAX =      1   max aug-charges    IRDMAX= 190210
   dimension x,y,z NGX =    24 NGY =   24 NGZ =  336
   dimension x,y,z NGXF=    48 NGYF=   48 NGZF=  672
   support grid    NGXF=    96 NGYF=   96 NGZF= 1344
   ions per type =              10   9   7
 NGX,Y,Z   is equivalent  to a cutoff of  13.29, 13.29, 12.60 a.u.
 NGXF,Y,Z  is equivalent  to a cutoff of  26.57, 26.57, 25.20 a.u.


 I would recommend the setting:
   dimension x,y,z NGX =    22 NGY =   22 NGZ =  330
 SYSTEM =  unknown system                          
 POSCAR =  Layer                                   

 Startparameter for this run:
   NWRITE =      2    write-flag & timer
   PREC   = accura    normal or accurate (medium, high low for compatibility)
   ISTART =      0    job   : 0-new  1-cont  2-samecut
   ICHARG =      2    charge: 1-file 2-atom 10-const
   ISPIN  =      1    spin polarized calculation?
   LNONCOLLINEAR =      F non collinear calculations
   LSORBIT =      F    spin-orbit coupling
   INIWAV =      1    electr: 0-lowe 1-rand  2-diag
   LASPH  =      F    aspherical Exc in radial PAW
   METAGGA=      F    non-selfconsistent MetaGGA calc.

 Electronic Relaxation 1
   ENCUT  =  520.0 eV  38.22 Ry    6.18 a.u.   5.58  5.58 82.41*2*pi/ulx,y,z
   ENINI  =  520.0     initial cutoff
   ENAUG  =  605.4 eV  augmentation charge cutoff
   NELM   =    100;   NELMIN=  6; NELMDL=  0     # of ELM steps 
   EDIFF  = 0.1E-04   stopping-criterion for ELM
   LREAL  =      F    real-space projection
   NLSPLINE    = F    spline interpolate recip. space projectors
   LCOMPAT=      F    compatible to vasp.4.4
   GGA_COMPAT  = T    GGA compatible to vasp.4.4-vasp.4.6
   LMAXPAW     = -100 max onsite density
   LMAXMIX     =    2 max onsite mixed and CHGCAR
   VOSKOWN=      0    Vosko Wilk Nusair interpolation
   ROPT   =    0.00000   0.00000   0.00000
 Ionic relaxation
   EDIFFG = -.2E-01   stopping-criterion for IOM
   NSW    =    500    number of steps for IOM
   NBLOCK =      1;   KBLOCK =    500    inner block; outer block 
   IBRION =      2    ionic relax: 0-MD 1-quasi-New 2-CG
   NFREE  =      1    steps in history (QN), initial steepest desc. (CG)
   ISIF   =      2    stress and relaxation
   IWAVPR =     11    prediction:  0-non 1-charg 2-wave 3-comb
   ISYM   =      2    0-nonsym 1-usesym 2-fastsym
   LCORR  =      T    Harris-Foulkes like correction to forces

   POTIM  = 0.5000    time-step for ionic-motion
   TEIN   =    0.0    initial temperature
   TEBEG  =    0.0;   TEEND  =   0.0 temperature during run
   SMASS  =  -3.00    Nose mass-parameter (am)
   estimated Nose-frequenzy (Omega)   =  0.10E-29 period in steps =****** mass=  -0.206E-27a.u.
   SCALEE = 1.0000    scale energy and forces
   NPACO  =    256;   APACO  = 16.0  distance and # of slots for P.C.
   PSTRESS=    0.0 pullay stress

  Mass of Ions in am
   POMASS =  16.00 24.30 26.98
  Ionic Valenz
   ZVAL   =   6.00  2.00  3.00
  Atomic Wigner-Seitz radii
   RWIGS  =  -1.00 -1.00 -1.00
  virtual crystal weights 
   VCA    =   1.00  1.00  1.00
   NELECT =      99.0000    total number of electrons
   NUPDOWN=      -1.0000    fix difference up-down

 DOS related values:
   EMIN   =  10.00;   EMAX   =-10.00  energy-range for DOS
   EFERMI =   0.00
   ISMEAR =     0;   SIGMA  =   0.05  broadening in eV -4-tet -1-fermi 0-gaus

 Electronic relaxation 2 (details)
   IALGO  =     38    algorithm
   LDIAG  =      T    sub-space diagonalisation (order eigenvalues)
   LSUBROT=      F    optimize rotation matrix (better conditioning)
   TURBO    =      0    0=normal 1=particle mesh
   IRESTART =      0    0=no restart 2=restart with 2 vectors
   NREBOOT  =      0    no. of reboots
   NMIN     =      0    reboot dimension
   EREF     =   0.00    reference energy to select bands
   IMIX   =      4    mixing-type and parameters
     AMIX     =   0.40;   BMIX     =  1.00
     AMIX_MAG =   1.60;   BMIX_MAG =  1.00
     AMIN     =   0.01
     WC   =   100.;   INIMIX=   1;  MIXPRE=   1;  MAXMIX= -45

 Intra band minimization:
   WEIMIN = 0.0010     energy-eigenvalue tresh-hold
   EBREAK =  0.39E-07  absolut break condition
   DEPER  =   0.30     relativ break condition  

   TIME   =   0.40     timestep for ELM

  volume/ion in A,a.u.               =      13.31        89.83
  Fermi-wavevector in a.u.,A,eV,Ry     =   1.078659  2.038370 15.830447  1.163505
  Thomas-Fermi vector in A             =   2.214603
 
 Write flags
   LWAVE  =      F    write WAVECAR
   LCHARG =      T    write CHGCAR
   LVTOT  =      F    write LOCPOT, total local potential
   LVHAR  =      F    write LOCPOT, Hartree potential only
   LELF   =      F    write electronic localiz. function (ELF)
   LORBIT =      0    0 simple, 1 ext, 2 COOP (PROOUT)


 Dipole corrections
   LMONO  =      F    monopole corrections only (constant potential shift)
   LDIPOL =      F    correct potential (dipole corrections)
   IDIPOL =      0    1-x, 2-y, 3-z, 4-all directions 
   EPSILON=  1.0000000 bulk dielectric constant

 Exchange correlation treatment:
   GGA     =    --    GGA type
   LEXCH   =     8    internal setting for exchange type
   VOSKOWN=      0    Vosko Wilk Nusair interpolation
   LHFCALC =     F    Hartree Fock is set to
   LHFONE  =     F    Hartree Fock one center treatment
   AEXX    =    0.0000 exact exchange contribution

 Linear response parameters
   LEPSILON=     F    determine dielectric tensor
   LRPA    =     F    only Hartree local field effects (RPA)
   LNABLA  =     F    use nabla operator in PAW spheres
   LVEL    =     F    velocity operator in full k-point grid
   LINTERFAST=   F  fast interpolation
   KINTER  =     0    interpolate to denser k-point grid
   CSHIFT  =0.1000    complex shift for real part using Kramers Kronig
   OMEGAMAX=  -1.0    maximum frequency
   DEG_THRESHOLD= 0.2000000E-02 threshold for treating states as degnerate
   RTIME   =    0.100 relaxation time in fs

 Orbital magnetization related:
   ORBITALMAG=     F  switch on orbital magnetization
   LCHIMAG   =     F  perturbation theory with respect to B field
   DQ        =  0.001000  dq finite difference perturbation B field



--------------------------------------------------------------------------------------------------------


 conjugate gradient relaxation of ions
   using selective dynamics as specified on POSCAR
 charge density and potential will be updated during run
 non-spin polarized calculation
 Variant of blocked Davidson
 Davidson routine will perform the subspace rotation
 perform sub-space diagonalisation
    after iterative eigenvector-optimisation
 modified Broyden-mixing scheme, WC =      100.0
 initial mixing is a Kerker type mixing with AMIX =  0.4000 and BMIX =      1.0000
 Hartree-type preconditioning will be used
 using additional bands           14
 reciprocal scheme for non local part
 use partial core corrections
 calculate Harris-corrections to forces 
   (improved forces if not selfconsistent)
 use gradient corrections 
 use of overlap-Matrix (Vanderbilt PP)
 Gauss-broadening in eV      SIGMA  =   0.05


--------------------------------------------------------------------------------------------------------


  energy-cutoff  :      520.00
  volume of cell :      346.10
      direct lattice vectors                 reciprocal lattice vectors
     2.600457673 -1.501374484  0.000000000     0.384547693  0.000000000 -0.000000000
     0.000000000  3.002748968  0.000000000     0.192273847  0.333028172 -0.000000000
     0.000000000 -0.000000000 44.323951434     0.000000000  0.000000000  0.022561165

  length of vectors
     3.002749648  3.002748968 44.323951434     0.384547693  0.384547781  0.022561165


 
 k-points in units of 2pi/SCALE and weight: K-Spacing Value to Generate K-Mesh: 0.02
   0.00000000  0.00000000  0.00000000       0.006
   0.02958059  0.00000000 -0.00000000       0.036
   0.05916118  0.00000000 -0.00000000       0.036
   0.08874178  0.00000000 -0.00000000       0.036
   0.11832237  0.00000000 -0.00000000       0.036
   0.14790296  0.00000000 -0.00000000       0.036
   0.17748355  0.00000000 -0.00000000       0.036
   0.04437089  0.02561755 -0.00000000       0.036
   0.07395148  0.02561755 -0.00000000       0.071
   0.10353207  0.02561755 -0.00000000       0.071
   0.13311266  0.02561755 -0.00000000       0.071
   0.16269325  0.02561755 -0.00000000       0.071
   0.19227385  0.02561755 -0.00000000       0.036
   0.08874178  0.05123510 -0.00000000       0.036
   0.11832237  0.05123510 -0.00000000       0.071
   0.14790296  0.05123510 -0.00000000       0.071
   0.17748355  0.05123510 -0.00000000       0.071
   0.13311266  0.07685266 -0.00000000       0.036
   0.16269325  0.07685266 -0.00000000       0.071
   0.19227385  0.07685266 -0.00000000       0.036
   0.17748355  0.10247021 -0.00000000       0.036
 
 k-points in reciprocal lattice and weights: K-Spacing Value to Generate K-Mesh: 0.02
   0.00000000  0.00000000  0.00000000       0.006
   0.07692308  0.00000000 -0.00000000       0.036
   0.15384615  0.00000000 -0.00000000       0.036
   0.23076923  0.00000000  0.00000000       0.036
   0.30769231  0.00000000  0.00000000       0.036
   0.38461538  0.00000000 -0.00000000       0.036
   0.46153846  0.00000000  0.00000000       0.036
   0.07692308  0.07692308  0.00000000       0.036
   0.15384615  0.07692308  0.00000000       0.071
   0.23076923  0.07692308  0.00000000       0.071
   0.30769231  0.07692308 -0.00000000       0.071
   0.38461538  0.07692308 -0.00000000       0.071
   0.46153846  0.07692308 -0.00000000       0.036
   0.15384615  0.15384615 -0.00000000       0.036
   0.23076923  0.15384615  0.00000000       0.071
   0.30769231  0.15384615 -0.00000000       0.071
   0.38461538  0.15384615 -0.00000000       0.071
   0.23076923  0.23076923  0.00000000       0.036
   0.30769231  0.23076923 -0.00000000       0.071
   0.38461538  0.23076923  0.00000000       0.036
   0.30769231  0.30769231 -0.00000000       0.036
 
 position of ions in fractional coordinates (direct lattice) 
   0.00000000  0.00000000  0.27556372
   0.33333300  0.66666700  0.32942232
   0.00000000  0.00000000  0.44167458
   0.33333300  0.66666700  0.49784390
   0.00000000  0.00000000  0.61020687
   0.33333300  0.66666700  0.66632452
   0.00000000  0.00000000  0.77627467
   0.66666700  0.33333300  0.38554355
   0.66666700  0.33333300  0.55404430
   0.66666700  0.33333300  0.72243228
   0.00000000  0.00000000  0.35747982
   0.00000000  0.00000000  0.52594446
   0.00000000  0.00000000  0.69437729
   0.66666700  0.33333300  0.30126617
   0.66666700  0.33333300  0.46975560
   0.66666700  0.33333300  0.63826506
   0.33333300  0.66666700  0.41360769
   0.33333300  0.66666700  0.58212909
   0.33333300  0.66666700  0.75057774
   0.00000000  0.00000000  0.02688051
   0.00000000  0.00000000  0.23627592
   0.66666700  0.33333300  0.18650263
   0.33333300  0.66666700  0.07840697
   0.00000000  0.00000000  0.81555125
   0.66666700  0.33333300  0.97537199
   0.33333300  0.66666700  0.86524411
 
 position of ions in cartesian coordinates  (Angst):
   0.00000000 -0.00000000 12.21407275
   0.86681836  1.50137599 14.60129886
   0.00000000 -0.00000000 19.57676259
   0.86681836  1.50137599 22.06640882
   0.00000000 -0.00000000 27.04677983
   0.86681836  1.50137599 29.53413575
   0.00000000 -0.00000000 34.40756089
   1.73363932 -0.00000150 17.08881342
   1.73363932 -0.00000150 24.55743245
   1.73363932 -0.00000150 32.02105339
   0.00000000 -0.00000000 15.84491836
   0.00000000 -0.00000000 23.31193665
   0.00000000 -0.00000000 30.77754529
   1.73363932 -0.00000150 13.35330706
   1.73363932 -0.00000150 20.82142450
   1.73363932 -0.00000150 28.29042938
   0.86681836  1.50137599 18.33272706
   0.86681836  1.50137599 25.80226147
   0.86681836  1.50137599 33.26857136
   0.00000000 -0.00000000  1.19145030
   0.00000000 -0.00000000 10.47268257
   1.73363932 -0.00000150  8.26653338
   0.86681836  1.50137599  3.47530670
   0.00000000 -0.00000000 36.14845413
   1.73363932 -0.00000150 43.23234068
   0.86681836  1.50137599 38.35103771
 


--------------------------------------------------------------------------------------------------------


 k-point  1 :   0.0000 0.0000 0.0000  plane waves:    9417
 k-point  2 :   0.0769 0.0000-0.0000  plane waves:    9431
 k-point  3 :   0.1538 0.0000-0.0000  plane waves:    9399
 k-point  4 :   0.2308 0.0000 0.0000  plane waves:    9366
 k-point  5 :   0.3077 0.0000 0.0000  plane waves:    9316
 k-point  6 :   0.3846 0.0000-0.0000  plane waves:    9268
 k-point  7 :   0.4615 0.0000 0.0000  plane waves:    9280
 k-point  8 :   0.0769 0.0769 0.0000  plane waves:    9415
 k-point  9 :   0.1538 0.0769 0.0000  plane waves:    9392
 k-point 10 :   0.2308 0.0769 0.0000  plane waves:    9343
 k-point 11 :   0.3077 0.0769-0.0000  plane waves:    9304
 k-point 12 :   0.3846 0.0769-0.0000  plane waves:    9281
 k-point 13 :   0.4615 0.0769-0.0000  plane waves:    9256
 k-point 14 :   0.1538 0.1538-0.0000  plane waves:    9333
 k-point 15 :   0.2308 0.1538 0.0000  plane waves:    9308
 k-point 16 :   0.3077 0.1538-0.0000  plane waves:    9294
 k-point 17 :   0.3846 0.1538-0.0000  plane waves:    9262
 k-point 18 :   0.2308 0.2308 0.0000  plane waves:    9304
 k-point 19 :   0.3077 0.2308-0.0000  plane waves:    9285
 k-point 20 :   0.3846 0.2308 0.0000  plane waves:    9290
 k-point 21 :   0.3077 0.3077-0.0000  plane waves:    9308

 maximum and minimum number of plane-waves per node :      2369     2296

 maximum number of plane-waves:      9431
 maximum index in each direction: 
   IXMAX=    5   IYMAX=    5   IZMAX=   82
   IXMIN=   -6   IYMIN=   -5   IZMIN=  -82

 NGX is ok and might be reduce to  24
 NGY is ok and might be reduce to  22
 NGZ is ok and might be reduce to 330

 parallel 3D FFT for wavefunctions:
    minimum data exchange during FFTs selected (reduces bandwidth)
 parallel 3D FFT for charge:
    minimum data exchange during FFTs selected (reduces bandwidth)


 total amount of memory used by VASP on root node   153458. kBytes
========================================================================

   base      :      30000. kBytes
   nonl-proj :      16332. kBytes
   fftplans  :      57934. kBytes
   grid      :      23224. kBytes
   one-center:         56. kBytes
   wavefun   :      25912. kBytes
 
     INWAV:  cpu time    0.00: real time    0.00
 Broyden mixing: mesh for mixing (old mesh)
   NGX = 11   NGY = 11   NGZ =165
  (NGX  = 48   NGY  = 48   NGZ  =672)
  gives a total of  19965 points

 initial charge density was supplied:
 charge density of overlapping atoms calculated
 number of electron      99.0000000 magnetization 
 keeping initial charge density in first step


--------------------------------------------------------------------------------------------------------


 Maximum index for augmentation-charges        22919 (set IRDMAX)


--------------------------------------------------------------------------------------------------------


 First call to EWALD:  gamma=   0.252
 Maximum number of real-space cells 7x 7x 1
 Maximum number of reciprocal cells 1x 1x15

 FEWALD executed in parallel
    FEWALD:  cpu time    0.00: real time    0.00


----------------------------------------- Iteration    1(   1)  ---------------------------------------


    POTLOK:  cpu time    0.11: real time    0.11
    SETDIJ:  cpu time    0.10: real time    0.10
     EDDAV:  cpu time    4.36: real time    4.37
       DOS:  cpu time    0.00: real time    0.00
    --------------------------------------------
      LOOP:  cpu time    4.56: real time    4.58

 eigenvalue-minimisations  :  2712
 total energy-change (2. order) : 0.5365650E+03  (-0.4385697E+04)
 number of electron      99.0000000 magnetization 
 augmentation part       99.0000000 magnetization 

 Free energy of the ion-electron system (eV)
  ---------------------------------------------------
  alpha Z        PSCENC =       121.93323134
  Ewald energy   TEWEN  =     23136.06007760
  -Hartree energ DENC   =    -28181.34806854
  -exchange      EXHF   =         0.00000000
  -V(xc)+E(xc)   XCENC  =      -343.27391939
  PAW double counting   =      4516.65612620    -3844.19644948
  entropy T*S    EENTRO =        -0.00584621
  eigenvalues    EBANDS =       225.05896523
  atomic energy  EATOM  =      4905.68083858
  ---------------------------------------------------
  free energy    TOTEN  =       536.56495533 eV

  energy without entropy =      536.57080154  energy(sigma->0) =      536.56787844


--------------------------------------------------------------------------------------------------------




----------------------------------------- Iteration    1(   2)  ---------------------------------------


     EDDAV:  cpu time    5.19: real time    5.19
       DOS:  cpu time    0.00: real time    0.00
    --------------------------------------------
      LOOP:  cpu time    5.19: real time    5.20

 eigenvalue-minimisations  :  3464
 total energy-change (2. order) :-0.6293649E+03  (-0.5948206E+03)
 number of electron      99.0000000 magnetization 
 augmentation part       99.0000000 magnetization 

 Free energy of the ion-electron system (eV)
  ---------------------------------------------------
  alpha Z        PSCENC =       121.93323134
  Ewald energy   TEWEN  =     23136.06007760
  -Hartree energ DENC   =    -28181.34806854
  -exchange      EXHF   =         0.00000000
  -V(xc)+E(xc)   XCENC  =      -343.27391939
  PAW double counting   =      4516.65612620    -3844.19644948
  entropy T*S    EENTRO =        -0.00489278
  eigenvalues    EBANDS =      -404.30692723
  atomic energy  EATOM  =      4905.68083858
  ---------------------------------------------------
  free energy    TOTEN  =       -92.79998370 eV

  energy without entropy =      -92.79509091  energy(sigma->0) =      -92.79753731


--------------------------------------------------------------------------------------------------------




----------------------------------------- Iteration    1(   3)  ---------------------------------------


     EDDAV:  cpu time    4.85: real time    4.85
       DOS:  cpu time    0.00: real time    0.00
    --------------------------------------------
      LOOP:  cpu time    4.85: real time    4.85

 eigenvalue-minimisations  :  3144
 total energy-change (2. order) :-0.6403631E+02  (-0.6366542E+02)
 number of electron      99.0000000 magnetization 
 augmentation part       99.0000000 magnetization 

 Free energy of the ion-electron system (eV)
  ---------------------------------------------------
  alpha Z        PSCENC =       121.93323134
  Ewald energy   TEWEN  =     23136.06007760
  -Hartree energ DENC   =    -28181.34806854
  -exchange      EXHF   =         0.00000000
  -V(xc)+E(xc)   XCENC  =      -343.27391939
  PAW double counting   =      4516.65612620    -3844.19644948
  entropy T*S    EENTRO =        -0.00275587
  eigenvalues    EBANDS =      -468.34536918
  atomic energy  EATOM  =      4905.68083858
  ---------------------------------------------------
  free energy    TOTEN  =      -156.83628873 eV

  energy without entropy =     -156.83353287  energy(sigma->0) =     -156.83491080


--------------------------------------------------------------------------------------------------------




----------------------------------------- Iteration    1(   4)  ---------------------------------------


     EDDAV:  cpu time    4.87: real time    4.87
       DOS:  cpu time    0.00: real time    0.00
    --------------------------------------------
      LOOP:  cpu time    4.87: real time    4.87

 eigenvalue-minimisations  :  3176
 total energy-change (2. order) :-0.1120870E+01  (-0.1118808E+01)
 number of electron      99.0000000 magnetization 
 augmentation part       99.0000000 magnetization 

 Free energy of the ion-electron system (eV)
  ---------------------------------------------------
  alpha Z        PSCENC =       121.93323134
  Ewald energy   TEWEN  =     23136.06007760
  -Hartree energ DENC   =    -28181.34806854
  -exchange      EXHF   =         0.00000000
  -V(xc)+E(xc)   XCENC  =      -343.27391939
  PAW double counting   =      4516.65612620    -3844.19644948
  entropy T*S    EENTRO =        -0.00274591
  eigenvalues    EBANDS =      -469.46624890
  atomic energy  EATOM  =      4905.68083858
  ---------------------------------------------------
  free energy    TOTEN  =      -157.95715850 eV

  energy without entropy =     -157.95441259  energy(sigma->0) =     -157.95578555


--------------------------------------------------------------------------------------------------------




----------------------------------------- Iteration    1(   5)  ---------------------------------------


     EDDAV:  cpu time    4.95: real time    4.96
       DOS:  cpu time    0.00: real time    0.00
    CHARGE:  cpu time    0.39: real time    0.39
    MIXING:  cpu time    0.00: real time    0.00
    --------------------------------------------
      LOOP:  cpu time    5.35: real time    5.36

 eigenvalue-minimisations  :  3232
 total energy-change (2. order) :-0.2463760E-01  (-0.2462890E-01)
 number of electron      99.0000001 magnetization 
 augmentation part        7.7963021 magnetization 

 Broyden mixing:
  rms(total) = 0.23749E+01    rms(broyden)= 0.23743E+01
  rms(prec ) = 0.24372E+01
  weight for this iteration     100.00

 Free energy of the ion-electron system (eV)
  ---------------------------------------------------
  alpha Z        PSCENC =       121.93323134
  Ewald energy   TEWEN  =     23136.06007760
  -Hartree energ DENC   =    -28181.34806854
  -exchange      EXHF   =         0.00000000
  -V(xc)+E(xc)   XCENC  =      -343.27391939
  PAW double counting   =      4516.65612620    -3844.19644948
  entropy T*S    EENTRO =        -0.00274827
  eigenvalues    EBANDS =      -469.49088414
  atomic energy  EATOM  =      4905.68083858
  ---------------------------------------------------
  free energy    TOTEN  =      -157.98179610 eV

  energy without entropy =     -157.97904783  energy(sigma->0) =     -157.98042196


--------------------------------------------------------------------------------------------------------




----------------------------------------- Iteration    1(   6)  ---------------------------------------


    POTLOK:  cpu time    0.10: real time    0.10
    SETDIJ:  cpu time    0.10: real time    0.10
     EDDAV:  cpu time    4.77: real time    4.77
       DOS:  cpu time    0.00: real time    0.00
    CHARGE:  cpu time    0.38: real time    0.38
    MIXING:  cpu time    0.00: real time    0.00
    --------------------------------------------
      LOOP:  cpu time    5.36: real time    5.36

 eigenvalue-minimisations  :  3072
 total energy-change (2. order) : 0.1750716E+02  (-0.9210544E+01)
 number of electron      99.0000001 magnetization 
 augmentation part        6.3047057 magnetization 

 Broyden mixing:
  rms(total) = 0.78758E+00    rms(broyden)= 0.78653E+00
  rms(prec ) = 0.79748E+00
  weight for this iteration     100.00

 eigenvalues of (default mixing * dielectric matrix)
  average eigenvalue GAMMA=   0.8519
  0.8519

 Free energy of the ion-electron system (eV)
  ---------------------------------------------------
  alpha Z        PSCENC =       121.93323134
  Ewald energy   TEWEN  =     23136.06007760
  -Hartree energ DENC   =    -28390.83115363
  -exchange      EXHF   =         0.00000000
  -V(xc)+E(xc)   XCENC  =      -329.65403989
  PAW double counting   =      5408.12984967    -4739.25028883
  entropy T*S    EENTRO =        -0.00363289
  eigenvalues    EBANDS =      -252.53951545
  atomic energy  EATOM  =      4905.68083858
  ---------------------------------------------------
  free energy    TOTEN  =      -140.47463350 eV

  energy without entropy =     -140.47100061  energy(sigma->0) =     -140.47281705


--------------------------------------------------------------------------------------------------------




----------------------------------------- Iteration    1(   7)  ---------------------------------------


    POTLOK:  cpu time    0.10: real time    0.10
    SETDIJ:  cpu time    0.10: real time    0.10
     EDDAV:  cpu time    4.67: real time    4.67
       DOS:  cpu time    0.00: real time    0.00
    CHARGE:  cpu time    0.38: real time    0.38
    MIXING:  cpu time    0.00: real time    0.00
    --------------------------------------------
      LOOP:  cpu time    5.26: real time    5.26

 eigenvalue-minimisations  :  3000
 total energy-change (2. order) : 0.3738587E-01  (-0.3249832E+00)
 number of electron      99.0000002 magnetization 
 augmentation part        6.3123901 magnetization 

 Broyden mixing:
  rms(total) = 0.49571E+00    rms(broyden)= 0.49568E+00
  rms(prec ) = 0.50540E+00
  weight for this iteration     100.00

 eigenvalues of (default mixing * dielectric matrix)
  average eigenvalue GAMMA=   1.4107
  1.0406  1.7807

 Free energy of the ion-electron system (eV)
  ---------------------------------------------------
  alpha Z        PSCENC =       121.93323134
  Ewald energy   TEWEN  =     23136.06007760
  -Hartree energ DENC   =    -28395.98025052
  -exchange      EXHF   =         0.00000000
  -V(xc)+E(xc)   XCENC  =      -329.17584884
  PAW double counting   =      5760.67637960    -5091.37659360
  entropy T*S    EENTRO =        -0.00295546
  eigenvalues    EBANDS =      -248.25212633
  atomic energy  EATOM  =      4905.68083858
  ---------------------------------------------------
  free energy    TOTEN  =      -140.43724763 eV

  energy without entropy =     -140.43429216  energy(sigma->0) =     -140.43576990


--------------------------------------------------------------------------------------------------------




----------------------------------------- Iteration    1(   8)  ---------------------------------------


    POTLOK:  cpu time    0.10: real time    0.10
    SETDIJ:  cpu time    0.10: real time    0.10
     EDDAV:  cpu time    4.72: real time    4.73
       DOS:  cpu time    0.00: real time    0.00
    CHARGE:  cpu time    0.38: real time    0.38
    MIXING:  cpu time    0.00: real time    0.00
    --------------------------------------------
      LOOP:  cpu time    5.30: real time    5.31

 eigenvalue-minimisations  :  3040
 total energy-change (2. order) : 0.1778707E+00  (-0.7869710E-01)
 number of electron      99.0000002 magnetization 
 augmentation part        6.3766442 magnetization 

 Broyden mixing:
  rms(total) = 0.13970E+00    rms(broyden)= 0.13965E+00
  rms(prec ) = 0.14979E+00
  weight for this iteration     100.00

 eigenvalues of (default mixing * dielectric matrix)
  average eigenvalue GAMMA=   1.3591
  2.3679  0.9250  0.7844

 Free energy of the ion-electron system (eV)
  ---------------------------------------------------
  alpha Z        PSCENC =       121.93323134
  Ewald energy   TEWEN  =     23136.06007760
  -Hartree energ DENC   =    -28407.66149675
  -exchange      EXHF   =         0.00000000
  -V(xc)+E(xc)   XCENC  =      -328.17350261
  PAW double counting   =      6210.07330237    -5540.46542509
  entropy T*S    EENTRO =        -0.00422476
  eigenvalues    EBANDS =      -237.70217759
  atomic energy  EATOM  =      4905.68083858
  ---------------------------------------------------
  free energy    TOTEN  =      -140.25937691 eV

  energy without entropy =     -140.25515215  energy(sigma->0) =     -140.25726453


--------------------------------------------------------------------------------------------------------




----------------------------------------- Iteration    1(   9)  ---------------------------------------


    POTLOK:  cpu time    0.10: real time    0.10
    SETDIJ:  cpu time    0.10: real time    0.10
     EDDAV:  cpu time    4.83: real time    4.84
       DOS:  cpu time    0.00: real time    0.00
    CHARGE:  cpu time    0.38: real time    0.38
    MIXING:  cpu time    0.01: real time    0.01
    --------------------------------------------
      LOOP:  cpu time    5.42: real time    5.43

 eigenvalue-minimisations  :  3144
 total energy-change (2. order) : 0.4513778E-01  (-0.1386634E-01)
 number of electron      99.0000002 magnetization 
 augmentation part        6.3483599 magnetization 

 Broyden mixing:
  rms(total) = 0.70498E-01    rms(broyden)= 0.70492E-01
  rms(prec ) = 0.85132E-01
  weight for this iteration     100.00

 eigenvalues of (default mixing * dielectric matrix)
  average eigenvalue GAMMA=   1.3344
  2.4065  0.9478  0.9478  1.0355

 Free energy of the ion-electron system (eV)
  ---------------------------------------------------
  alpha Z        PSCENC =       121.93323134
  Ewald energy   TEWEN  =     23136.06007760
  -Hartree energ DENC   =    -28418.29141247
  -exchange      EXHF   =         0.00000000
  -V(xc)+E(xc)   XCENC  =      -327.46622417
  PAW double counting   =      6335.34723071    -5665.76687035
  entropy T*S    EENTRO =        -0.00326072
  eigenvalues    EBANDS =      -227.70784967
  atomic energy  EATOM  =      4905.68083858
  ---------------------------------------------------
  free energy    TOTEN  =      -140.21423914 eV

  energy without entropy =     -140.21097842  energy(sigma->0) =     -140.21260878


--------------------------------------------------------------------------------------------------------




----------------------------------------- Iteration    1(  10)  ---------------------------------------


    POTLOK:  cpu time    0.11: real time    0.11
    SETDIJ:  cpu time    0.10: real time    0.10
     EDDAV:  cpu time    4.73: real time    4.73
       DOS:  cpu time    0.00: real time    0.00
    CHARGE:  cpu time    0.38: real time    0.38
    MIXING:  cpu time    0.01: real time    0.01
    --------------------------------------------
      LOOP:  cpu time    5.32: real time    5.32

 eigenvalue-minimisations  :  3040
 total energy-change (2. order) : 0.8104983E-02  (-0.6821900E-02)
 number of electron      99.0000002 magnetization 
 augmentation part        6.3324360 magnetization 

 Broyden mixing:
  rms(total) = 0.32733E-01    rms(broyden)= 0.32712E-01
  rms(prec ) = 0.46509E-01
  weight for this iteration     100.00

 eigenvalues of (default mixing * dielectric matrix)
  average eigenvalue GAMMA=   1.3513
  2.5337  1.7172  0.9651  0.7702  0.7702

 Free energy of the ion-electron system (eV)
  ---------------------------------------------------
  alpha Z        PSCENC =       121.93323134
  Ewald energy   TEWEN  =     23136.06007760
  -Hartree energ DENC   =    -28421.50520245
  -exchange      EXHF   =         0.00000000
  -V(xc)+E(xc)   XCENC  =      -327.34459295
  PAW double counting   =      6330.11002475    -5660.54246886
  entropy T*S    EENTRO =        -0.00380865
  eigenvalues    EBANDS =      -224.59423351
  atomic energy  EATOM  =      4905.68083858
  ---------------------------------------------------
  free energy    TOTEN  =      -140.20613415 eV

  energy without entropy =     -140.20232550  energy(sigma->0) =     -140.20422983


--------------------------------------------------------------------------------------------------------




----------------------------------------- Iteration    1(  11)  ---------------------------------------


    POTLOK:  cpu time    0.10: real time    0.10
    SETDIJ:  cpu time    0.10: real time    0.10
     EDDAV:  cpu time    4.85: real time    4.86
       DOS:  cpu time    0.00: real time    0.00
    CHARGE:  cpu time    0.38: real time    0.38
    MIXING:  cpu time    0.00: real time    0.00
    --------------------------------------------
      LOOP:  cpu time    5.44: real time    5.44

 eigenvalue-minimisations  :  3128
 total energy-change (2. order) : 0.9210687E-02  (-0.1777877E-02)
 number of electron      99.0000002 magnetization 
 augmentation part        6.3272298 magnetization 

 Broyden mixing:
  rms(total) = 0.26290E-01    rms(broyden)= 0.26284E-01
  rms(prec ) = 0.46970E-01
  weight for this iteration     100.00

 eigenvalues of (default mixing * dielectric matrix)
  average eigenvalue GAMMA=   1.2607
  2.5568  1.8519  0.9503  0.7522  0.7522  0.7006

 Free energy of the ion-electron system (eV)
  ---------------------------------------------------
  alpha Z        PSCENC =       121.93323134
  Ewald energy   TEWEN  =     23136.06007760
  -Hartree energ DENC   =    -28426.11536657
  -exchange      EXHF   =         0.00000000
  -V(xc)+E(xc)   XCENC  =      -327.20979381
  PAW double counting   =      6304.33944525    -5634.78377956
  entropy T*S    EENTRO =        -0.00290713
  eigenvalues    EBANDS =      -220.09866916
  atomic energy  EATOM  =      4905.68083858
  ---------------------------------------------------
  free energy    TOTEN  =      -140.19692347 eV

  energy without entropy =     -140.19401633  energy(sigma->0) =     -140.19546990


--------------------------------------------------------------------------------------------------------




----------------------------------------- Iteration    1(  12)  ---------------------------------------


    POTLOK:  cpu time    0.10: real time    0.10
    SETDIJ:  cpu time    0.09: real time    0.09
     EDDAV:  cpu time    5.20: real time    5.20
       DOS:  cpu time    0.00: real time    0.00
    CHARGE:  cpu time    0.38: real time    0.38
    MIXING:  cpu time    0.00: real time    0.00
    --------------------------------------------
      LOOP:  cpu time    5.78: real time    5.78

 eigenvalue-minimisations  :  3400
 total energy-change (2. order) : 0.5755855E-02  (-0.5769384E-03)
 number of electron      99.0000002 magnetization 
 augmentation part        6.3251198 magnetization 

 Broyden mixing:
  rms(total) = 0.18740E-01    rms(broyden)= 0.18739E-01
  rms(prec ) = 0.38081E-01
  weight for this iteration     100.00

 eigenvalues of (default mixing * dielectric matrix)
  average eigenvalue GAMMA=   1.3669
  2.7623  2.5331  0.9421  0.9421  0.9422  0.9422  0.5047

 Free energy of the ion-electron system (eV)
  ---------------------------------------------------
  alpha Z        PSCENC =       121.93323134
  Ewald energy   TEWEN  =     23136.06007760
  -Hartree energ DENC   =    -28427.63253598
  -exchange      EXHF   =         0.00000000
  -V(xc)+E(xc)   XCENC  =      -327.19690139
  PAW double counting   =      6296.61193347    -5627.05657219
  entropy T*S    EENTRO =        -0.00315057
  eigenvalues    EBANDS =      -218.58808847
  atomic energy  EATOM  =      4905.68083858
  ---------------------------------------------------
  free energy    TOTEN  =      -140.19116761 eV

  energy without entropy =     -140.18801704  energy(sigma->0) =     -140.18959232


--------------------------------------------------------------------------------------------------------




----------------------------------------- Iteration    1(  13)  ---------------------------------------


    POTLOK:  cpu time    0.10: real time    0.10
    SETDIJ:  cpu time    0.09: real time    0.10
     EDDAV:  cpu time    6.18: real time    6.19
       DOS:  cpu time    0.00: real time    0.00
    CHARGE:  cpu time    0.38: real time    0.38
    MIXING:  cpu time    0.00: real time    0.00
    --------------------------------------------
      LOOP:  cpu time    6.76: real time    6.77

 eigenvalue-minimisations  :  4264
 total energy-change (2. order) : 0.1368260E-01  (-0.1497439E-02)
 number of electron      99.0000002 magnetization 
 augmentation part        6.3289700 magnetization 

 Broyden mixing:
  rms(total) = 0.12044E-01    rms(broyden)= 0.12039E-01
  rms(prec ) = 0.28049E-01
  weight for this iteration     100.00

 eigenvalues of (default mixing * dielectric matrix)
  average eigenvalue GAMMA=   1.3245
  2.9881  2.5191  1.0311  1.0311  0.8388  0.8388  0.7991  0.5494

 Free energy of the ion-electron system (eV)
  ---------------------------------------------------
  alpha Z        PSCENC =       121.93323134
  Ewald energy   TEWEN  =     23136.06007760
  -Hartree energ DENC   =    -28431.92397327
  -exchange      EXHF   =         0.00000000
  -V(xc)+E(xc)   XCENC  =      -327.23730655
  PAW double counting   =      6265.62441036    -5596.05594277
  entropy T*S    EENTRO =        -0.00340415
  eigenvalues    EBANDS =      -214.25541616
  atomic energy  EATOM  =      4905.68083858
  ---------------------------------------------------
  free energy    TOTEN  =      -140.17748501 eV

  energy without entropy =     -140.17408086  energy(sigma->0) =     -140.17578294


--------------------------------------------------------------------------------------------------------




----------------------------------------- Iteration    1(  14)  ---------------------------------------


    POTLOK:  cpu time    0.10: real time    0.10
    SETDIJ:  cpu time    0.09: real time    0.09
     EDDAV:  cpu time    4.97: real time    4.98
       DOS:  cpu time    0.00: real time    0.00
    CHARGE:  cpu time    0.38: real time    0.38
    MIXING:  cpu time    0.00: real time    0.00
    --------------------------------------------
      LOOP:  cpu time    5.56: real time    5.56

 eigenvalue-minimisations  :  3216
 total energy-change (2. order) : 0.4725813E-02  (-0.1186558E-02)
 number of electron      99.0000002 magnetization 
 augmentation part        6.3319457 magnetization 

 Broyden mixing:
  rms(total) = 0.19243E-01    rms(broyden)= 0.19240E-01
  rms(prec ) = 0.30022E-01
  weight for this iteration     100.00

 eigenvalues of (default mixing * dielectric matrix)
  average eigenvalue GAMMA=   1.3445
  3.2034  2.5385  1.1240  1.1240  1.0505  0.8984  0.8984  0.7086  0.5545

 Free energy of the ion-electron system (eV)
  ---------------------------------------------------
  alpha Z        PSCENC =       121.93323134
  Ewald energy   TEWEN  =     23136.06007760
  -Hartree energ DENC   =    -28434.34380898
  -exchange      EXHF   =         0.00000000
  -V(xc)+E(xc)   XCENC  =      -327.24992299
  PAW double counting   =      6263.69073930    -5594.11753856
  entropy T*S    EENTRO =        -0.00340343
  eigenvalues    EBANDS =      -211.82297207
  atomic energy  EATOM  =      4905.68083858
  ---------------------------------------------------
  free energy    TOTEN  =      -140.17275920 eV

  energy without entropy =     -140.16935577  energy(sigma->0) =     -140.17105749


--------------------------------------------------------------------------------------------------------




----------------------------------------- Iteration    1(  15)  ---------------------------------------


    POTLOK:  cpu time    0.10: real time    0.10
    SETDIJ:  cpu time    0.09: real time    0.09
     EDDAV:  cpu time    5.62: real time    5.62
       DOS:  cpu time    0.00: real time    0.00
    CHARGE:  cpu time    0.39: real time    0.39
    MIXING:  cpu time    0.01: real time    0.01
    --------------------------------------------
      LOOP:  cpu time    6.21: real time    6.22

 eigenvalue-minimisations  :  3800
 total energy-change (2. order) : 0.1134865E-01  (-0.1665010E-02)
 number of electron      99.0000002 magnetization 
 augmentation part        6.3229306 magnetization 

 Broyden mixing:
  rms(total) = 0.21065E-01    rms(broyden)= 0.21059E-01
  rms(prec ) = 0.26382E-01
  weight for this iteration     100.00

 eigenvalues of (default mixing * dielectric matrix)
  average eigenvalue GAMMA=   1.5020
  3.9489  2.8298  2.2145  1.0520  1.0520  0.9956  0.8189  0.8189  0.7451  0.5447

 Free energy of the ion-electron system (eV)
  ---------------------------------------------------
  alpha Z        PSCENC =       121.93323134
  Ewald energy   TEWEN  =     23136.06007760
  -Hartree energ DENC   =    -28441.79165942
  -exchange      EXHF   =         0.00000000
  -V(xc)+E(xc)   XCENC  =      -327.20191790
  PAW double counting   =      6268.01542126    -5598.45754863
  entropy T*S    EENTRO =        -0.00326437
  eigenvalues    EBANDS =      -204.39658901
  atomic energy  EATOM  =      4905.68083858
  ---------------------------------------------------
  free energy    TOTEN  =      -140.16141055 eV

  energy without entropy =     -140.15814618  energy(sigma->0) =     -140.15977837


--------------------------------------------------------------------------------------------------------




----------------------------------------- Iteration    1(  16)  ---------------------------------------


    POTLOK:  cpu time    0.11: real time    0.11
    SETDIJ:  cpu time    0.10: real time    0.10
     EDDAV:  cpu time    5.22: real time    5.23
       DOS:  cpu time    0.00: real time    0.00
    CHARGE:  cpu time    0.38: real time    0.38
    MIXING:  cpu time    0.00: real time    0.00
    --------------------------------------------
      LOOP:  cpu time    5.81: real time    5.82

 eigenvalue-minimisations  :  3464
 total energy-change (2. order) : 0.6149646E-02  (-0.9801561E-03)
 number of electron      99.0000002 magnetization 
 augmentation part        6.3228962 magnetization 

 Broyden mixing:
  rms(total) = 0.15425E-01    rms(broyden)= 0.15424E-01
  rms(prec ) = 0.18793E-01
  weight for this iteration     100.00

 eigenvalues of (default mixing * dielectric matrix)
  average eigenvalue GAMMA=   1.6767
  5.5371  2.9230  2.4356  1.2692  1.2692  1.0071  1.0071  0.8645  0.8645  0.7171
  0.5487

 Free energy of the ion-electron system (eV)
  ---------------------------------------------------
  alpha Z        PSCENC =       121.93323134
  Ewald energy   TEWEN  =     23136.06007760
  -Hartree energ DENC   =    -28445.61827019
  -exchange      EXHF   =         0.00000000
  -V(xc)+E(xc)   XCENC  =      -327.25677839
  PAW double counting   =      6275.25466839    -5605.68646126
  entropy T*S    EENTRO =        -0.00339523
  eigenvalues    EBANDS =      -200.51917174
  atomic energy  EATOM  =      4905.68083858
  ---------------------------------------------------
  free energy    TOTEN  =      -140.15526090 eV

  energy without entropy =     -140.15186567  energy(sigma->0) =     -140.15356329


--------------------------------------------------------------------------------------------------------




----------------------------------------- Iteration    1(  17)  ---------------------------------------


    POTLOK:  cpu time    0.10: real time    0.10
    SETDIJ:  cpu time    0.09: real time    0.09
     EDDAV:  cpu time    5.11: real time    5.11
       DOS:  cpu time    0.00: real time    0.00
    CHARGE:  cpu time    0.38: real time    0.38
    MIXING:  cpu time    0.01: real time    0.01
    --------------------------------------------
      LOOP:  cpu time    5.69: real time    5.70

 eigenvalue-minimisations  :  3376
 total energy-change (2. order) : 0.3484058E-02  (-0.1791627E-02)
 number of electron      99.0000002 magnetization 
 augmentation part        6.3250654 magnetization 

 Broyden mixing:
  rms(total) = 0.13167E-01    rms(broyden)= 0.13161E-01
  rms(prec ) = 0.15320E-01
  weight for this iteration     100.00

 eigenvalues of (default mixing * dielectric matrix)
  average eigenvalue GAMMA=   1.7200
  6.7863  3.0376  2.4481  1.3803  1.0202  1.0202  1.0011  1.0011  0.8386  0.8386
  0.7187  0.5494

 Free energy of the ion-electron system (eV)
  ---------------------------------------------------
  alpha Z        PSCENC =       121.93323134
  Ewald energy   TEWEN  =     23136.06007760
  -Hartree energ DENC   =    -28448.86575888
  -exchange      EXHF   =         0.00000000
  -V(xc)+E(xc)   XCENC  =      -327.29831178
  PAW double counting   =      6280.60535846    -5611.02425504
  entropy T*S    EENTRO =        -0.00338340
  eigenvalues    EBANDS =      -197.23957373
  atomic energy  EATOM  =      4905.68083858
  ---------------------------------------------------
  free energy    TOTEN  =      -140.15177685 eV

  energy without entropy =     -140.14839345  energy(sigma->0) =     -140.15008515


--------------------------------------------------------------------------------------------------------




----------------------------------------- Iteration    1(  18)  ---------------------------------------


    POTLOK:  cpu time    0.10: real time    0.10
    SETDIJ:  cpu time    0.10: real time    0.10
     EDDAV:  cpu time    5.12: real time    5.13
       DOS:  cpu time    0.00: real time    0.00
    CHARGE:  cpu time    0.38: real time    0.38
    MIXING:  cpu time    0.01: real time    0.01
    --------------------------------------------
      LOOP:  cpu time    5.71: real time    5.71

 eigenvalue-minimisations  :  3368
 total energy-change (2. order) : 0.1655501E-02  (-0.8313065E-03)
 number of electron      99.0000002 magnetization 
 augmentation part        6.3243318 magnetization 

 Broyden mixing:
  rms(total) = 0.83737E-02    rms(broyden)= 0.83722E-02
  rms(prec ) = 0.99872E-02
  weight for this iteration     100.00

 eigenvalues of (default mixing * dielectric matrix)
  average eigenvalue GAMMA=   1.6979
  7.0526  3.0914  2.4174  1.7448  0.8841  0.8841  0.9153  0.9153  1.0103  1.0103
  0.9045  0.6938  0.5486

 Free energy of the ion-electron system (eV)
  ---------------------------------------------------
  alpha Z        PSCENC =       121.93323134
  Ewald energy   TEWEN  =     23136.06007760
  -Hartree energ DENC   =    -28450.93723083
  -exchange      EXHF   =         0.00000000
  -V(xc)+E(xc)   XCENC  =      -327.28604391
  PAW double counting   =      6283.33495906    -5613.75643443
  entropy T*S    EENTRO =        -0.00330914
  eigenvalues    EBANDS =      -195.17620961
  atomic energy  EATOM  =      4905.68083858
  ---------------------------------------------------
  free energy    TOTEN  =      -140.15012134 eV

  energy without entropy =     -140.14681221  energy(sigma->0) =     -140.14846678


--------------------------------------------------------------------------------------------------------




----------------------------------------- Iteration    1(  19)  ---------------------------------------


    POTLOK:  cpu time    0.10: real time    0.10
    SETDIJ:  cpu time    0.09: real time    0.09
     EDDAV:  cpu time    5.17: real time    5.17
       DOS:  cpu time    0.00: real time    0.00
    CHARGE:  cpu time    0.38: real time    0.38
    MIXING:  cpu time    0.01: real time    0.01
    --------------------------------------------
      LOOP:  cpu time    5.75: real time    5.75

 eigenvalue-minimisations  :  3424
 total energy-change (2. order) : 0.1180847E-02  (-0.3123461E-03)
 number of electron      99.0000002 magnetization 
 augmentation part        6.3238352 magnetization 

 Broyden mixing:
  rms(total) = 0.38968E-02    rms(broyden)= 0.38949E-02
  rms(prec ) = 0.52619E-02
  weight for this iteration     100.00

 eigenvalues of (default mixing * dielectric matrix)
  average eigenvalue GAMMA=   2.1272
 10.4699  4.7750  2.7781  2.4588  1.0683  1.0683  1.3764  0.8639  0.8639  0.9580
  0.9580  0.5489  0.8738  0.7200

 Free energy of the ion-electron system (eV)
  ---------------------------------------------------
  alpha Z        PSCENC =       121.93323134
  Ewald energy   TEWEN  =     23136.06007760
  -Hartree energ DENC   =    -28451.94208862
  -exchange      EXHF   =         0.00000000
  -V(xc)+E(xc)   XCENC  =      -327.28774567
  PAW double counting   =      6278.98235858    -5609.40320535
  entropy T*S    EENTRO =        -0.00328442
  eigenvalues    EBANDS =      -194.16912255
  atomic energy  EATOM  =      4905.68083858
  ---------------------------------------------------
  free energy    TOTEN  =      -140.14894050 eV

  energy without entropy =     -140.14565608  energy(sigma->0) =     -140.14729829


--------------------------------------------------------------------------------------------------------




----------------------------------------- Iteration    1(  20)  ---------------------------------------


    POTLOK:  cpu time    0.10: real time    0.10
    SETDIJ:  cpu time    0.09: real time    0.09
     EDDAV:  cpu time    6.10: real time    6.11
       DOS:  cpu time    0.00: real time    0.00
    CHARGE:  cpu time    0.38: real time    0.38
    MIXING:  cpu time    0.01: real time    0.01
    --------------------------------------------
      LOOP:  cpu time    6.68: real time    6.69

 eigenvalue-minimisations  :  4200
 total energy-change (2. order) : 0.8257113E-03  (-0.2763540E-03)
 number of electron      99.0000002 magnetization 
 augmentation part        6.3234264 magnetization 

 Broyden mixing:
  rms(total) = 0.50711E-02    rms(broyden)= 0.50689E-02
  rms(prec ) = 0.53374E-02
  weight for this iteration     100.00

 eigenvalues of (default mixing * dielectric matrix)
  average eigenvalue GAMMA=   2.3917
 14.9161  4.9659  2.8738  2.4274  1.6775  1.0518  1.0518  1.0274  1.0274  0.9207
  0.9207  0.8762  0.8762  0.5489  0.7131

 Free energy of the ion-electron system (eV)
  ---------------------------------------------------
  alpha Z        PSCENC =       121.93323134
  Ewald energy   TEWEN  =     23136.06007760
  -Hartree energ DENC   =    -28453.46206451
  -exchange      EXHF   =         0.00000000
  -V(xc)+E(xc)   XCENC  =      -327.28146713
  PAW double counting   =      6275.10109484    -5605.52360687
  entropy T*S    EENTRO =        -0.00328604
  eigenvalues    EBANDS =      -192.65293260
  atomic energy  EATOM  =      4905.68083858
  ---------------------------------------------------
  free energy    TOTEN  =      -140.14811479 eV

  energy without entropy =     -140.14482874  energy(sigma->0) =     -140.14647176


--------------------------------------------------------------------------------------------------------




----------------------------------------- Iteration    1(  21)  ---------------------------------------


    POTLOK:  cpu time    0.10: real time    0.10
    SETDIJ:  cpu time    0.10: real time    0.10
     EDDAV:  cpu time    4.68: real time    4.69
       DOS:  cpu time    0.00: real time    0.00
    CHARGE:  cpu time    0.38: real time    0.38
    MIXING:  cpu time    0.01: real time    0.01
    --------------------------------------------
      LOOP:  cpu time    5.27: real time    5.27

 eigenvalue-minimisations  :  3008
 total energy-change (2. order) :-0.2006315E-03  (-0.3454007E-03)
 number of electron      99.0000002 magnetization 
 augmentation part        6.3227014 magnetization 

 Broyden mixing:
  rms(total) = 0.63267E-02    rms(broyden)= 0.63256E-02
  rms(prec ) = 0.64336E-02
  weight for this iteration     100.00

 eigenvalues of (default mixing * dielectric matrix)
  average eigenvalue GAMMA=   2.3672
 16.2563  5.1742  2.9082  2.4338  1.7479  1.0505  1.0505  0.9359  0.9359  1.0864
  0.9785  0.8910  0.8910  0.5489  0.7145  0.2723

 Free energy of the ion-electron system (eV)
  ---------------------------------------------------
  alpha Z        PSCENC =       121.93323134
  Ewald energy   TEWEN  =     23136.06007760
  -Hartree energ DENC   =    -28454.03274794
  -exchange      EXHF   =         0.00000000
  -V(xc)+E(xc)   XCENC  =      -327.27394967
  PAW double counting   =      6273.98447461    -5604.40999265
  entropy T*S    EENTRO =        -0.00329682
  eigenvalues    EBANDS =      -192.08695048
  atomic energy  EATOM  =      4905.68083858
  ---------------------------------------------------
  free energy    TOTEN  =      -140.14831542 eV

  energy without entropy =     -140.14501860  energy(sigma->0) =     -140.14666701


--------------------------------------------------------------------------------------------------------




----------------------------------------- Iteration    1(  22)  ---------------------------------------


    POTLOK:  cpu time    0.10: real time    0.10
    SETDIJ:  cpu time    0.10: real time    0.10
     EDDAV:  cpu time    4.64: real time    4.64
       DOS:  cpu time    0.00: real time    0.00
    CHARGE:  cpu time    0.38: real time    0.38
    MIXING:  cpu time    0.01: real time    0.01
    --------------------------------------------
      LOOP:  cpu time    5.23: real time    5.23

 eigenvalue-minimisations  :  2952
 total energy-change (2. order) :-0.1200626E-04  (-0.6887377E-04)
 number of electron      99.0000002 magnetization 
 augmentation part        6.3225248 magnetization 

 Broyden mixing:
  rms(total) = 0.52643E-02    rms(broyden)= 0.52638E-02
  rms(prec ) = 0.53425E-02
  weight for this iteration     100.00

 eigenvalues of (default mixing * dielectric matrix)
  average eigenvalue GAMMA=   2.3901
 17.4919  5.3860  3.0175  2.4865  1.7947  1.0642  1.0642  1.1709  0.8411  0.8411
  0.9146  0.9146  0.5489  0.7512  0.7512  0.7964  0.7964

 Free energy of the ion-electron system (eV)
  ---------------------------------------------------
  alpha Z        PSCENC =       121.93323134
  Ewald energy   TEWEN  =     23136.06007760
  -Hartree energ DENC   =    -28454.06319335
  -exchange      EXHF   =         0.00000000
  -V(xc)+E(xc)   XCENC  =      -327.27232380
  PAW double counting   =      6273.30157032    -5603.72757872
  entropy T*S    EENTRO =        -0.00330236
  eigenvalues    EBANDS =      -192.05764703
  atomic energy  EATOM  =      4905.68083858
  ---------------------------------------------------
  free energy    TOTEN  =      -140.14832742 eV

  energy without entropy =     -140.14502506  energy(sigma->0) =     -140.14667624


--------------------------------------------------------------------------------------------------------




----------------------------------------- Iteration    1(  23)  ---------------------------------------


    POTLOK:  cpu time    0.10: real time    0.10
    SETDIJ:  cpu time    0.09: real time    0.09
     EDDAV:  cpu time    4.64: real time    4.64
       DOS:  cpu time    0.00: real time    0.00
    CHARGE:  cpu time    0.38: real time    0.38
    MIXING:  cpu time    0.01: real time    0.01
    --------------------------------------------
      LOOP:  cpu time    5.23: real time    5.23

 eigenvalue-minimisations  :  2960
 total energy-change (2. order) : 0.4222632E-04  (-0.2283605E-04)
 number of electron      99.0000002 magnetization 
 augmentation part        6.3230911 magnetization 

 Broyden mixing:
  rms(total) = 0.21679E-02    rms(broyden)= 0.21670E-02
  rms(prec ) = 0.22147E-02
  weight for this iteration     100.00

 eigenvalues of (default mixing * dielectric matrix)
  average eigenvalue GAMMA=   2.4523
 19.4087  5.7317  2.9976  2.4972  1.9632  1.1280  1.1280  1.0507  1.0507  1.1255
  0.8675  0.8675  0.9344  0.9344  0.5489  0.7181  0.7181  0.4707

 Free energy of the ion-electron system (eV)
  ---------------------------------------------------
  alpha Z        PSCENC =       121.93323134
  Ewald energy   TEWEN  =     23136.06007760
  -Hartree energ DENC   =    -28454.08692072
  -exchange      EXHF   =         0.00000000
  -V(xc)+E(xc)   XCENC  =      -327.27779623
  PAW double counting   =      6271.96576053    -5602.38984116
  entropy T*S    EENTRO =        -0.00330899
  eigenvalues    EBANDS =      -192.03032615
  atomic energy  EATOM  =      4905.68083858
  ---------------------------------------------------
  free energy    TOTEN  =      -140.14828520 eV

  energy without entropy =     -140.14497621  energy(sigma->0) =     -140.14663070


--------------------------------------------------------------------------------------------------------




----------------------------------------- Iteration    1(  24)  ---------------------------------------


    POTLOK:  cpu time    0.10: real time    0.10
    SETDIJ:  cpu time    0.09: real time    0.09
     EDDAV:  cpu time    4.16: real time    4.17
       DOS:  cpu time    0.00: real time    0.00
    --------------------------------------------
      LOOP:  cpu time    4.36: real time    4.37

 eigenvalue-minimisations  :  2520
 total energy-change (2. order) : 0.1866383E-05  (-0.4186294E-05)
 number of electron      99.0000002 magnetization 
 augmentation part        6.3230911 magnetization 

 Free energy of the ion-electron system (eV)
  ---------------------------------------------------
  alpha Z        PSCENC =       121.93323134
  Ewald energy   TEWEN  =     23136.06007760
  -Hartree energ DENC   =    -28454.08351026
  -exchange      EXHF   =         0.00000000
  -V(xc)+E(xc)   XCENC  =      -327.27718763
  PAW double counting   =      6271.86248477    -5602.28656414
  entropy T*S    EENTRO =        -0.00330686
  eigenvalues    EBANDS =      -192.03434674
  atomic energy  EATOM  =      4905.68083858
  ---------------------------------------------------
  free energy    TOTEN  =      -140.14828333 eV

  energy without entropy =     -140.14497647  energy(sigma->0) =     -140.14662990


--------------------------------------------------------------------------------------------------------




 average (electrostatic) potential at core
  the test charge radii are     0.7215  1.0714  1.0406
  (the norm of the test charge is              1.0000)
       1 -70.4371       2 -69.6889       3 -69.6987       4 -69.6980       5 -69.7005
       6 -69.6990       7 -70.4379       8 -69.6972       9 -69.6988      10 -69.6893
      11 -35.2928      12 -35.3016      13 -35.2929      14 -35.2929      15 -35.2999
      16 -35.2976      17 -35.2968      18 -35.3007      19 -35.2922      20 -76.3152
      21 -76.0557      22 -76.4490      23 -76.4107      24 -76.0518      25 -76.4093
      26 -76.4436
 
 
 
 E-fermi :   4.2863     XC(G=0):  -9.7774     alpha+bet :-11.5743


 k-point     1 :       0.0000    0.0000    0.0000
  band No.  band energies     occupation 
      1     -14.4178      2.00000
      2     -14.4156      2.00000
      3     -13.9758      2.00000
      4     -13.8724      2.00000
      5     -13.7153      2.00000
      6     -13.5297      2.00000
      7     -13.3334      2.00000
      8     -13.1479      2.00000
      9     -12.9965      2.00000
     10     -12.8968      2.00000
     11      -5.5930      2.00000
     12      -5.1579      2.00000
     13      -5.1541      2.00000
     14      -3.8639      2.00000
     15      -2.2400      2.00000
     16      -2.2358      2.00000
     17      -1.3314      2.00000
     18      -1.1481      2.00000
     19      -1.0152      2.00000
     20      -0.5967      2.00000
     21      -0.2089      2.00000
     22       0.1701      2.00000
     23       0.5966      2.00000
[...]
 k-point    19 :       0.3077    0.2308   -0.0000
  band No.  band energies     occupation 
      1     -13.7208      2.00000
      2     -13.7138      2.00000
      3     -12.8473      2.00000
      4     -12.8218      2.00000
      5     -12.7875      2.00000
      6     -12.7464      2.00000
      7     -12.7014      2.00000
      8     -12.6579      2.00000
      9     -12.6241      2.00000
     10     -12.6012      2.00000
     11      -1.3056      2.00000
     12      -1.2982      2.00000
     13      -0.9449      2.00000
     14      -0.9357      2.00000
     15      -0.8977      2.00000
     16      -0.7801      2.00000
     17      -0.6267      2.00000
     18      -0.5650      2.00000
     19      -0.4740      2.00000
     20      -0.4681      2.00000
     21      -0.3049      2.00000
     22      -0.1195      2.00000
     23      -0.0122      2.00000
     24       0.2008      2.00000
     25       0.2301      2.00000
     26       0.4247      2.00000
     27       0.5674      2.00000
     28       0.5751      2.00000
     29       0.5914      2.00000
     30       0.7785      2.00000
     31       0.8123      2.00000
     32       0.9614      2.00000
     33       0.9989      2.00000
     34       1.1220      2.00000
     35       1.2381      2.00000
     36       1.3292      2.00000
     37       1.4587      2.00000
     38       1.6407      2.00000
     39       1.8018      2.00000
     40       1.8955      2.00000
     41       1.9644      2.00000
     42       2.0673      2.00000
     43       2.1558      2.00000
     44       2.2612      2.00000
     45       2.3081      2.00000
     46       2.8651      2.00000
     47       2.8722      2.00000
     48       3.4748      2.00000
     49       3.9444      2.00000
     50       3.9882      2.00000
     51       4.0387      2.00000
     52       4.0920      2.00000
     53       4.5772      0.00000
     54       4.5861      0.00000
     55       5.6620      0.00000
     56       6.3217      0.00000
     57       6.8675      0.00000
     58       6.9299      0.00000
     59       7.0665      0.00000
     60       8.3429      0.00000
     61       8.3905      0.00000
     62       8.4482      0.00000
     63       9.0765      0.00000
     64       9.1681      0.00000

 k-point    20 :       0.3846    0.2308    0.0000
  band No.  band energies     occupation 
      1     -13.6854      2.00000
      2     -13.6784      2.00000
      3     -12.7526      2.00000
      4     -12.7383      2.00000
      5     -12.7224      2.00000
      6     -12.7024      2.00000
      7     -12.6786      2.00000
      8     -12.6539      2.00000
      9     -12.6350      2.00000
     10     -12.6200      2.00000
     11      -1.0920      2.00000
     12      -1.0828      2.00000
     13      -0.9146      2.00000
     14      -0.9062      2.00000
     15      -0.8458      2.00000
     16      -0.6539      2.00000
     17      -0.4455      2.00000
     18      -0.4410      2.00000
     19      -0.3948      2.00000
     20      -0.3515      2.00000
     21      -0.1393      2.00000
     22      -0.1286      2.00000
     23       0.3976      2.00000
     24       0.4208      2.00000
     25       0.5480      2.00000
     26       0.5619      2.00000
     27       0.5890      2.00000
     28       0.6033      2.00000
     29       0.6331      2.00000
     30       0.6666      2.00000
     31       0.7369      2.00000
     32       0.8613      2.00000
     33       1.0072      2.00000
     34       1.1725      2.00000
     35       1.2973      2.00000
     36       1.3050      2.00000
     37       1.4536      2.00000
     38       1.4652      2.00000
     39       1.7037      2.00000
     40       1.7069      2.00000
     41       1.8307      2.00000
     42       1.8381      2.00000
     43       1.9573      2.00000
     44       2.0674      2.00000
     45       2.0964      2.00000
     46       2.1342      2.00000
     47       2.1406      2.00000
     48       2.5306      2.00000
     49       3.7662      2.00000
     50       4.2250      1.92967
     51       4.2321      1.89286
     52       4.8426      0.00000
     53       5.1244      0.00000
     54       5.1532      0.00000
     55       5.2671      0.00000
     56       5.6062      0.00000
     57       5.8169      0.00000
     58       5.8323      0.00000
     59       7.6730      0.00000
     60       8.0050      0.00000
     61       8.3667      0.00000
     62       8.4309      0.00000
     63       8.5641      0.00000
     64       9.5540      0.00000

 k-point    21 :       0.3077    0.3077   -0.0000
  band No.  band energies     occupation 
      1     -13.6701      2.00000
      2     -13.6631      2.00000
      3     -12.7183      2.00000
      4     -12.7060      2.00000
      5     -12.6945      2.00000
      6     -12.6806      2.00000
      7     -12.6642      2.00000
      8     -12.6477      2.00000
      9     -12.6364      2.00000
     10     -12.6249      2.00000
     11      -0.9522      2.00000
     12      -0.9448      2.00000
     13      -0.7095      2.00000
     14      -0.7011      2.00000
     15      -0.5258      2.00000
     16      -0.5126      2.00000
     17      -0.4014      2.00000
     18      -0.3729      2.00000
     19      -0.3123      2.00000
     20      -0.2123      2.00000
     21      -0.1387      2.00000
     22      -0.0133      2.00000
     23       0.0909      2.00000
     24       0.1335      2.00000
     25       0.2898      2.00000
     26       0.3238      2.00000
     27       0.3335      2.00000
     28       0.4684      2.00000
     29       0.5319      2.00000
     30       0.5769      2.00000
     31       0.7232      2.00000
     32       0.7679      2.00000
     33       0.8253      2.00000
     34       1.2861      2.00000
     35       1.2946      2.00000
     36       1.6577      2.00000
     37       1.7833      2.00000
     38       1.8672      2.00000
     39       1.8989      2.00000
     40       1.9540      2.00000
     41       1.9618      2.00000
     42       1.9885      2.00000
     43       1.9912      2.00000
     44       2.0302      2.00000
     45       2.0952      2.00000
     46       2.2519      2.00000
     47       2.5253      2.00000
     48       2.5328      2.00000
     49       2.8880      2.00000
     50       2.8948      2.00000
     51       3.6505      2.00000
     52       4.0047      2.00000
     53       4.9733      0.00000
     54       5.2353      0.00000
     55       5.2716      0.00000
     56       6.2864      0.00000
     57       6.4171      0.00000
     58       6.4683      0.00000
     59       6.7504      0.00000
     60       7.3659      0.00000
     61       7.3852      0.00000
     62       7.9055      0.00000
     63       9.2350      0.00000
     64       9.4259      0.00000


--------------------------------------------------------------------------------------------------------


 soft charge-density along one line, spin component           1
         0         1         2         3         4         5         6         7         8         9
 total charge-density along one line
 
 pseudopotential strength for first ion, spin component:           1
 12.234   0.000 -14.889   0.000  -0.000   0.000   0.025   0.000   0.000   0.000   0.000   0.000  -0.032   0.000  -0.000   0.000
-14.889   0.000  18.141   0.000   0.000   0.000  -0.032   0.000  -0.000   0.000  -0.000   0.000   0.040   0.000   0.000   0.000
 -0.000   0.000   0.000   0.000  -8.370   0.000  -0.000   0.000   0.000   0.000  10.031   0.000   0.000   0.000  -0.000   0.000
  0.025   0.000  -0.032   0.000  -0.000   0.000  -8.432   0.000   0.000   0.000   0.000   0.000  10.114   0.000  -0.000   0.000
  0.000   0.000  -0.000   0.000   0.000   0.000   0.000   0.000  -8.370   0.000  -0.000   0.000  -0.000   0.000  10.031   0.000
  0.000   0.000  -0.000   0.000  10.031   0.000   0.000   0.000  -0.000   0.000 -11.862   0.000  -0.000   0.000   0.000   0.000
 -0.032   0.000   0.040   0.000   0.000   0.000  10.114   0.000  -0.000   0.000  -0.000   0.000 -11.974   0.000   0.000   0.000
 -0.000   0.000   0.000   0.000  -0.000   0.000  -0.000   0.000  10.031   0.000   0.000   0.000   0.000   0.000 -11.862   0.000
 total augmentation occupancy for first ion, spin component:           1
  2.654   0.385   0.000  -0.081  -0.000   0.000  -0.033  -0.000
  0.385   0.078   0.000  -0.079  -0.000   0.000  -0.016  -0.000
  0.000   0.000   2.136  -0.000   0.000   0.237  -0.000   0.000
 -0.081  -0.079  -0.000   2.252   0.000  -0.000   0.317   0.000
 -0.000  -0.000   0.000   0.000   2.136   0.000   0.000   0.237
  0.000   0.000   0.237  -0.000   0.000   0.029  -0.000   0.000
 -0.033  -0.016  -0.000   0.317   0.000  -0.000   0.049   0.000
 -0.000  -0.000   0.000   0.000   0.237   0.000   0.000   0.029


------------------------ aborting loop because EDIFF is reached ----------------------------------------


    CHARGE:  cpu time    0.38: real time    0.38
    FORLOC:  cpu time    0.03: real time    0.03
    FORNL :  cpu time    3.11: real time    3.12
    STRESS:  cpu time    4.08: real time    4.08
    FORCOR:  cpu time    0.14: real time    0.14
    FORHAR:  cpu time    0.06: real time    0.06
    MIXING:  cpu time    0.00: real time    0.00
    OFIELD:  cpu time    0.00: real time    0.00

  FORCE on cell =-STRESS in cart. coord.  units (eV):
  Direction    XX          YY          ZZ          XY          YZ          ZX
  --------------------------------------------------------------------------------------
  Alpha Z   121.93323   121.93323   121.93323
  Ewald   26988.92096 26988.92132-29588.44085    -0.00006    -0.00002    -0.00013
  Hartree 28741.08851 28741.08842-27780.56477    -0.00000    -0.00000     0.00005
  E(xc)    -414.83059  -414.83061  -415.62415    -0.00000     0.00000     0.00000
  Local  -56948.27262-56948.27210 56162.84192    -0.00018    -0.00000     0.00004
  n-local   -57.27421   -69.54730   -53.99343     3.14833    -1.44586     5.42100
  augment    60.81580    60.81555    59.36432     0.00018    -0.00000     0.00000
  Kinetic  1519.78905  1502.15268  1491.70709    -1.32711    -0.87433     2.65316
  Fock        0.00000     0.00000     0.00000     0.00000     0.00000     0.00000
  -------------------------------------------------------------------------------------
  Total      -2.78434    -2.78434    -2.77664     0.00000     0.00000    -0.00000
  in kB     -12.88920   -12.88919   -12.85356     0.00000     0.00000    -0.00000
  external pressure =      -12.88 kB  Pullay stress =        0.00 kB


 VOLUME and BASIS-vectors are now :
 -----------------------------------------------------------------------------
  energy-cutoff  :      520.00
  volume of cell :      346.10
      direct lattice vectors                 reciprocal lattice vectors
     2.600457673 -1.501374484  0.000000000     0.384547693  0.000000000 -0.000000000
     0.000000000  3.002748968  0.000000000     0.192273847  0.333028172 -0.000000000
     0.000000000 -0.000000000 44.323951434     0.000000000  0.000000000  0.022561165

  length of vectors
     3.002749648  3.002748968 44.323951434     0.384547693  0.384547781  0.022561165


 FORCES acting on ions
    electron-ion (+dipol)            ewald-force                    non-local-force                 convergence-correction
 -----------------------------------------------------------------------------------------------
   0.256E-05 -.513E-06 0.155E+04   0.244E-04 -.273E-04 -.154E+04   -.173E-15 0.108E-16 -.102E+02   0.544E-10 -.110E-09 0.271E-01
   0.106E-02 -.184E-02 0.121E+04   0.602E-04 -.103E-03 -.121E+04   -.111E-17 0.110E-19 -.292E-01   0.808E-11 -.341E-10 0.292E-01
   -.344E-08 0.239E-09 0.519E+03   -.555E-07 0.639E-07 -.519E+03   0.195E-18 -.250E-19 0.124E-01   -.259E-10 0.136E-09 0.479E-01
   0.107E-02 -.184E-02 0.172E+03   0.587E-04 -.102E-03 -.172E+03   0.768E-19 -.130E-20 0.345E-02   0.195E-08 -.325E-08 0.406E-01
   0.373E-08 -.314E-09 -.522E+03   0.207E-07 -.247E-07 0.522E+03   -.500E-19 0.114E-20 -.302E-02   0.168E-09 -.213E-09 -.159E-02
   0.107E-02 -.184E-02 -.869E+03   0.588E-04 -.102E-03 0.869E+03   -.161E-18 0.189E-19 -.965E-02   0.553E-08 -.959E-08 -.270E-01
   -.256E-05 0.515E-06 -.156E+04   -.243E-04 0.273E-04 0.155E+04   0.166E-15 -.247E-16 0.103E+02   -.208E-09 0.257E-09 -.458E-01
   -.107E-02 0.184E-02 0.866E+03   -.587E-04 0.102E-03 -.866E+03   0.620E-20 -.178E-19 0.235E-02   -.867E-08 0.151E-07 0.426E-01
   -.107E-02 0.184E-02 -.175E+03   -.587E-04 0.102E-03 0.175E+03   0.231E-18 -.320E-19 0.130E-01   -.174E-08 0.305E-08 0.205E-01
   -.106E-02 0.184E-02 -.122E+04   -.603E-04 0.103E-03 0.122E+04   0.146E-18 0.860E-18 0.196E-01   0.198E-08 -.348E-08 -.416E-01
   0.197E-07 0.147E-07 0.346E+03   -.967E-07 0.109E-06 -.346E+03   0.410E-18 -.113E-18 0.116E-01   0.278E-09 -.553E-09 0.126E-01
   -.248E-07 0.222E-07 -.509E+00   0.415E-07 -.467E-07 0.496E+00   -.244E-19 0.155E-20 -.413E-02   0.105E-10 -.250E-10 0.106E-01
   -.726E-08 0.642E-09 -.347E+03   0.224E-07 -.255E-07 0.347E+03   -.642E-19 0.143E-20 -.381E-02   -.333E-10 0.110E-09 -.117E-01
   0.493E-04 -.825E-04 0.466E+03   -.552E-04 0.913E-04 -.466E+03   0.179E-17 -.698E-17 0.105E+00   0.330E-09 -.568E-09 0.847E-02
   0.443E-04 -.767E-04 0.115E+03   -.500E-04 0.866E-04 -.115E+03   -.385E-19 0.110E-18 -.435E-02   0.676E-10 -.154E-09 0.152E-01
   0.443E-04 -.767E-04 -.232E+03   -.500E-04 0.866E-04 0.232E+03   0.257E-19 0.107E-18 0.462E-02   0.101E-09 -.266E-09 -.414E-02
   -.443E-04 0.767E-04 0.231E+03   0.500E-04 -.866E-04 -.231E+03   -.950E-19 0.196E-20 -.520E-02   -.144E-09 0.328E-09 0.153E-01
   -.443E-04 0.767E-04 -.116E+03   0.500E-04 -.866E-04 0.116E+03   -.808E-20 -.264E-19 -.178E-02   -.583E-10 0.147E-09 0.349E-02
   -.493E-04 0.826E-04 -.467E+03   0.553E-04 -.914E-04 0.467E+03   -.356E-19 0.351E-17 -.959E-01   -.819E-09 0.141E-08 -.152E-01
   -.640E-09 -.106E-08 0.833E+01   0.440E-08 -.438E-08 -.833E+01   0.164E-18 0.990E-20 0.971E-02   0.206E-11 -.149E-11 -.463E-02
   -.766E-06 -.691E-07 0.866E+03   0.323E-05 -.304E-05 -.862E+03   -.666E-16 0.158E-17 -.421E+01   0.741E-11 -.551E-11 0.742E-02
   0.158E-04 -.263E-04 0.709E+03   -.300E-05 0.282E-05 -.708E+03   0.250E-16 0.559E-16 -.104E+01   0.702E-12 -.130E-10 0.576E-02
   -.147E-04 0.249E-04 0.151E+03   0.242E-05 -.229E-05 -.152E+03   0.444E-17 -.634E-18 0.169E+01   -.196E-11 0.157E-10 0.121E-02
   0.769E-06 0.701E-07 -.868E+03   -.325E-05 0.306E-05 0.864E+03   0.805E-16 0.400E-16 0.423E+01   -.109E-10 0.872E-11 -.217E-01
   0.147E-04 -.249E-04 -.134E+03   -.242E-05 0.229E-05 0.136E+03   -.183E-16 0.112E-15 -.167E+01   0.775E-11 -.230E-10 -.107E-01
   -.158E-04 0.263E-04 -.712E+03   0.301E-05 -.284E-05 0.711E+03   0.276E-17 -.395E-18 0.105E+01   -.201E-10 0.274E-10 -.182E-01
 -----------------------------------------------------------------------------------------------
   0.594E-08 0.378E-08 -.170E+00   0.103E-12 -.318E-13 -.114E-11   0.224E-16 0.192E-15 0.831E-01   -.122E-08 0.234E-08 0.857E-01
 
 
 POSITION                                       TOTAL-FORCE (eV/Angst)
 -----------------------------------------------------------------------------------
      0.00000     -0.00000     12.31943         0.000000     -0.000000      0.001998
      0.86682      1.50138     14.68429        -0.000000     -0.000000     -0.018556
      0.00000     -0.00000     19.61192         0.000000     -0.000000      0.008990
      0.86682      1.50138     22.07728         0.000000      0.000000      0.003365
      0.00000     -0.00000     27.00751        -0.000000     -0.000000     -0.003687
      0.86682      1.50138     29.47208        -0.000000      0.000000     -0.009327
      0.00000     -0.00000     34.29834        -0.000000      0.000000     -0.018367
      1.73364     -0.00000     17.14734         0.000000      0.000000      0.003350
      1.73364     -0.00000     24.54222        -0.000000      0.000000      0.006338
      1.73364     -0.00000     31.93460         0.000000      0.000000      0.008868
      0.00000     -0.00000     15.91483         0.000000     -0.000000      0.019457
      0.00000     -0.00000     23.31018        -0.000000     -0.000000     -0.006416
      0.00000     -0.00000     30.70355        -0.000000      0.000000     -0.009799
      1.73364     -0.00000     13.44711         0.000000     -0.000000      0.016914
      1.73364     -0.00000     20.84505        -0.000000     -0.000000     -0.004400
      1.73364     -0.00000     28.23933         0.000000     -0.000000      0.005443
      0.86682      1.50138     18.38017        -0.000000      0.000000     -0.008006
      0.86682      1.50138     25.77507        -0.000000     -0.000000     -0.005451
      0.86682      1.50138     33.17049        -0.000000      0.000000     -0.010845
      0.00000     -0.00000      1.20630         0.000000     -0.000000      0.003224
      0.00000     -0.00000     10.59384         0.000000     -0.000000      0.005396
      1.73364     -0.00000      8.41086         0.000000     -0.000000      0.006662
      0.86682      1.50138      3.46936         0.000000     -0.000000      0.003535
      0.00000     -0.00000     36.02300         0.000000     -0.000000      0.007722
      1.73364     -0.00000     43.26803         0.000000     -0.000000      0.002904
      0.86682      1.50138     38.20306        -0.000000      0.000000     -0.009310
 -----------------------------------------------------------------------------------
    total drift:                                0.000000      0.000000     -0.000732


--------------------------------------------------------------------------------------------------------



  FREE ENERGIE OF THE ION-ELECTRON SYSTEM (eV)
  ---------------------------------------------------
  free  energy   TOTEN  =      -140.18093768 eV

  energy  without entropy=     -140.17827636  energy(sigma->0) =     -140.17960702
 
 d Force = 0.9579422E-04[ 0.662E-04, 0.125E-03]  d Energy = 0.9498546E-04 0.809E-06
 d Force =-0.6801402E+01[-0.680E+01,-0.680E+01]  d Ewald  =-0.6801402E+01-0.960E-08


--------------------------------------------------------------------------------------------------------


    POTLOK:  cpu time    0.20: real time    0.20


--------------------------------------------------------------------------------------------------------


 Conjugate gradient step on ions:
 trial-energy change:   -0.000095  1 .order   -0.000096   -0.000125   -0.000066
  (g-gl).g = 0.141E-03      g.g   = 0.194E-03  gl.gl    = 0.176E-03
 g(Force)  = 0.194E-03   g(Stress)= 0.000E+00 ortho     = 0.830E-06
 gamma     =   0.79825
 trial     =   0.64372
 opt step  =   1.36421  (harmonic =   1.36421) maximal distance =0.00232990
 next E    =  -140.180976   (d E  =  -0.00013)


--------------------------------------------------------------------------------------------------------


  
 reached required accuracy - stopping structural energy minimisation
     LOOP+:  cpu time   31.83: real time   31.85
    4ORBIT:  cpu time    0.00: real time    0.00

 total amount of memory used by VASP on root node   153458. kBytes
========================================================================

   base      :      30000. kBytes
   nonl-proj :      16332. kBytes
   fftplans  :      57934. kBytes
   grid      :      23224. kBytes
   one-center:         56. kBytes
   wavefun   :      25912. kBytes
 
  
  
 General timing and accounting informations for this job:
 ========================================================
  
                  Total CPU time used (sec):     1941.778
                            User time (sec):     1920.046
                          System time (sec):       21.732
                         Elapsed time (sec):     1943.301
  
                   Maximum memory used (kb):      260372.
                   Average memory used (kb):           0.
  
                          Minor page faults:       397200
                          Major page faults:            0
                 Voluntary context switches:          109
