       N       E                     dE             d eps       ncg     rms          rms(c)
DAV:   1     0.553334066773E+03    0.55333E+03   -0.49071E+04  2856   0.139E+03
DAV:   2    -0.112829641675E+03   -0.66616E+03   -0.63682E+03  3668   0.270E+02
DAV:   3    -0.168721517915E+03   -0.55892E+02   -0.55583E+02  3336   0.851E+01
DAV:   4    -0.169423068532E+03   -0.70155E+00   -0.70025E+00  3320   0.103E+01
DAV:   5    -0.169433485189E+03   -0.10417E-01   -0.10411E-01  3464   0.123E+00    0.239E+01
DAV:   6    -0.152826610083E+03    0.16607E+02   -0.95276E+01  3312   0.325E+01    0.821E+00
DAV:   7    -0.152643448770E+03    0.18316E+00   -0.20467E+00  3144   0.623E+00    0.494E+00
DAV:   8    -0.152535987055E+03    0.10746E+00   -0.68525E-01  3316   0.457E+00    0.111E+00
DAV:   9    -0.152512967202E+03    0.23020E-01   -0.15593E-01  3308   0.180E+00    0.451E-01
DAV:  10    -0.152513708178E+03   -0.74098E-03   -0.51773E-02  3204   0.907E-01    0.325E-01
DAV:  11    -0.152511569870E+03    0.21383E-02   -0.76096E-03  3468   0.406E-01    0.187E-01
DAV:  12    -0.152510047301E+03    0.15226E-02   -0.64438E-03  3368   0.375E-01    0.123E-01
DAV:  13    -0.152508998335E+03    0.10490E-02   -0.13954E-03  4312   0.307E-01    0.615E-02
DAV:  14    -0.152508207148E+03    0.79119E-03   -0.16034E-03  3992   0.301E-01    0.442E-02
DAV:  15    -0.152507112323E+03    0.10948E-02   -0.81831E-04  3544   0.305E-01    0.429E-02
DAV:  16    -0.152506139003E+03    0.97332E-03   -0.10839E-03  3864   0.454E-01    0.695E-02
DAV:  17    -0.152505613409E+03    0.52559E-03   -0.15154E-03  4440   0.408E-01    0.250E-02
DAV:  18    -0.152505475758E+03    0.13765E-03   -0.12801E-03  3432   0.259E-01    0.345E-02
DAV:  19    -0.152505090310E+03    0.38545E-03   -0.29229E-04  4620   0.340E-01    0.155E-02
DAV:  20    -0.152504903983E+03    0.18633E-03   -0.29009E-04  4072   0.300E-01    0.146E-02
DAV:  21    -0.152504809600E+03    0.94382E-04   -0.36020E-04  4368   0.299E-01    0.170E-02
DAV:  22    -0.152504775723E+03    0.33878E-04   -0.34134E-04  3744   0.233E-01    0.718E-03
DAV:  23    -0.152504815304E+03   -0.39582E-04   -0.44006E-04  3084   0.811E-02    0.207E-02
DAV:  24    -0.152504815724E+03   -0.41932E-06   -0.15876E-05  1948   0.159E-02
   1 F= -.15250482E+03 E0= -.15250122E+03  d E =-.152505E+03
       N       E                     dE             d eps       ncg     rms          rms(c)
DAV:   1    -0.152508806124E+03   -0.39908E-02   -0.81332E-02  3000   0.122E+00    0.897E-02
DAV:   2    -0.152508819591E+03   -0.13467E-04   -0.62621E-03  3288   0.349E-01    0.765E-02
DAV:   3    -0.152508756496E+03    0.63095E-04   -0.71207E-04  3240   0.110E-01    0.597E-02
DAV:   4    -0.152508698679E+03    0.57817E-04   -0.22226E-04  3272   0.613E-02    0.276E-02
DAV:   5    -0.152508654866E+03    0.43813E-04   -0.14399E-04  3268   0.682E-02    0.206E-02
DAV:   6    -0.152508642844E+03    0.12022E-04   -0.33454E-05  2712   0.487E-02    0.170E-02
DAV:   7    -0.152508637120E+03    0.57240E-05   -0.55853E-05  2940   0.375E-02
   2 F= -.15250864E+03 E0= -.15250502E+03  d E =-.382140E-02
       N       E                     dE             d eps       ncg     rms          rms(c)
DAV:   1    -0.152508871678E+03   -0.22883E-03   -0.79299E-03  2976   0.383E-01    0.266E-02
DAV:   2    -0.152508873503E+03   -0.18250E-05   -0.60586E-04  3288   0.111E-01    0.246E-02
DAV:   3    -0.152508864418E+03    0.90842E-05   -0.69252E-05  3132   0.391E-02    0.196E-02
DAV:   4    -0.152508856559E+03    0.78591E-05   -0.17649E-05  2116   0.210E-02    0.107E-02
DAV:   5    -0.152508842052E+03    0.14507E-04   -0.20556E-05  2520   0.452E-02    0.672E-03
DAV:   6    -0.152508836501E+03    0.55512E-05   -0.11097E-05  2128   0.344E-02
   3 F= -.15250884E+03 E0= -.15250520E+03  d E =-.402078E-02
       N       E                     dE             d eps       ncg     rms          rms(c)
DAV:   1    -0.152509956049E+03   -0.11140E-02   -0.24105E-01  2936   0.212E+00    0.681E-02
DAV:   2    -0.152510459721E+03   -0.50367E-03   -0.61710E-03  3312   0.303E-01    0.446E-02
DAV:   3    -0.152510414053E+03    0.45668E-04   -0.87924E-05  3384   0.568E-02    0.315E-02
DAV:   4    -0.152510380836E+03    0.33217E-04   -0.84475E-05  3248   0.536E-02    0.136E-02
DAV:   5    -0.152510367999E+03    0.12837E-04   -0.24577E-05  2464   0.360E-02    0.759E-03
DAV:   6    -0.152510356416E+03    0.11584E-04   -0.17090E-05  2312   0.363E-02    0.418E-03
DAV:   7    -0.152510350888E+03    0.55276E-05   -0.13612E-05  2032   0.247E-02
   4 F= -.15251035E+03 E0= -.15250668E+03  d E =-.151439E-02
       N       E                     dE             d eps       ncg     rms          rms(c)
DAV:   1    -0.152510181546E+03    0.17487E-03   -0.58259E-01  2920   0.330E+00    0.106E-01
DAV:   2    -0.152511398606E+03   -0.12171E-02   -0.14965E-02  3316   0.472E-01    0.679E-02
DAV:   3    -0.152511288911E+03    0.10970E-03   -0.21294E-04  3392   0.872E-02    0.485E-02
DAV:   4    -0.152511203766E+03    0.85145E-04   -0.20167E-04  3352   0.843E-02    0.209E-02
DAV:   5    -0.152511169992E+03    0.33773E-04   -0.70130E-05  3360   0.582E-02    0.128E-02
DAV:   6    -0.152511141936E+03    0.28056E-04   -0.45289E-05  2920   0.521E-02    0.733E-03
DAV:   7    -0.152511126412E+03    0.15524E-04   -0.22841E-05  2464   0.366E-02    0.885E-03
DAV:   8    -0.152511106068E+03    0.20344E-04   -0.14295E-05  2216   0.476E-02    0.434E-03
DAV:   9    -0.152511083904E+03    0.22164E-04   -0.28387E-05  2664   0.782E-02    0.928E-03
DAV:  10    -0.152511076034E+03    0.78695E-05   -0.37239E-05  2864   0.478E-02
   5 F= -.15251108E+03 E0= -.15250732E+03  d E =-.223953E-02
       N       E                     dE             d eps       ncg     rms          rms(c)
DAV:   1    -0.152511457087E+03   -0.37318E-03   -0.33359E-01  2920   0.246E+00    0.769E-02
DAV:   2    -0.152512208842E+03   -0.75175E-03   -0.83893E-03  3192   0.340E-01    0.452E-02
DAV:   3    -0.152512154167E+03    0.54675E-04   -0.87640E-05  3312   0.575E-02    0.307E-02
DAV:   4    -0.152512110540E+03    0.43626E-04   -0.67028E-05  3240   0.637E-02    0.120E-02
DAV:   5    -0.152512098285E+03    0.12255E-04   -0.56128E-05  3288   0.513E-02    0.689E-03
DAV:   6    -0.152512095386E+03    0.28994E-05   -0.21396E-05  2240   0.259E-02
   6 F= -.15251210E+03 E0= -.15250828E+03  d E =-.101935E-02
       N       E                     dE             d eps       ncg     rms          rms(c)
DAV:   1    -0.152507292431E+03    0.48059E-02   -0.29990E+00  2896   0.739E+00    0.237E-01
DAV:   2    -0.152514143854E+03   -0.68514E-02   -0.76351E-02  3176   0.102E+00    0.136E-01
DAV:   3    -0.152513648948E+03    0.49491E-03   -0.78562E-04  3392   0.164E-01    0.908E-02
DAV:   4    -0.152513294993E+03    0.35395E-03   -0.59278E-04  3368   0.173E-01    0.363E-02
DAV:   5    -0.152513180918E+03    0.11407E-03   -0.41865E-04  3368   0.137E-01    0.171E-02
DAV:   6    -0.152513143385E+03    0.37534E-04   -0.15116E-04  3344   0.724E-02    0.134E-02
DAV:   7    -0.152513106167E+03    0.37218E-04   -0.22561E-05  2440   0.461E-02    0.778E-03
DAV:   8    -0.152513061638E+03    0.44529E-04   -0.51238E-05  3096   0.751E-02    0.756E-03
DAV:   9    -0.152513041182E+03    0.20456E-04   -0.35074E-05  2872   0.600E-02    0.480E-03
DAV:  10    -0.152513023348E+03    0.17834E-04   -0.22219E-05  2424   0.790E-02    0.519E-03
DAV:  11    -0.152513022600E+03    0.74794E-06   -0.52402E-05  2960   0.460E-02
   7 F= -.15251302E+03 E0= -.15250910E+03  d E =-.194657E-02
       N       E                     dE             d eps       ncg     rms          rms(c)
DAV:   1    -0.152512821517E+03    0.20183E-03   -0.14308E-01  2928   0.162E+00    0.538E-02
DAV:   2    -0.152513142916E+03   -0.32140E-03   -0.36311E-03  3192   0.226E-01    0.283E-02
DAV:   3    -0.152513119198E+03    0.23718E-04   -0.41978E-05  3172   0.411E-02    0.193E-02
DAV:   4    -0.152513100324E+03    0.18874E-04   -0.28027E-05  2704   0.429E-02    0.780E-03
DAV:   5    -0.152513093834E+03    0.64902E-05   -0.24928E-05  2624   0.375E-02    0.493E-03
DAV:   6    -0.152513092357E+03    0.14770E-05   -0.13149E-05  1876   0.204E-02
   8 F= -.15251309E+03 E0= -.15250920E+03  d E =-.201632E-02
       N       E                     dE             d eps       ncg     rms          rms(c)
DAV:   1    -0.152513580444E+03   -0.48661E-03   -0.32318E-01  2904   0.249E+00    0.774E-02
DAV:   2    -0.152514256277E+03   -0.67583E-03   -0.78125E-03  3240   0.358E-01    0.449E-02
DAV:   3    -0.152514206660E+03    0.49617E-04   -0.12779E-04  3376   0.579E-02    0.324E-02
DAV:   4    -0.152514160908E+03    0.45752E-04   -0.81162E-05  3256   0.540E-02    0.137E-02
DAV:   5    -0.152514138999E+03    0.21909E-04   -0.33398E-05  2836   0.541E-02    0.106E-02
DAV:   6    -0.152514122988E+03    0.16011E-04   -0.27478E-05  2528   0.570E-02    0.518E-03
DAV:   7    -0.152514111125E+03    0.11862E-04   -0.18147E-05  2268   0.520E-02    0.634E-03
DAV:   8    -0.152514093137E+03    0.17988E-04   -0.79818E-06  2092   0.657E-02    0.474E-03
DAV:   9    -0.152514080770E+03    0.12367E-04   -0.16757E-05  2328   0.575E-02    0.416E-03
DAV:  10    -0.152514069430E+03    0.11340E-04   -0.62792E-06  2168   0.699E-02    0.408E-03
DAV:  11    -0.152514061146E+03    0.82841E-05   -0.23382E-05  2664   0.890E-02
   9 F= -.15251406E+03 E0= -.15251010E+03  d E =-.968789E-03
       N       E                     dE             d eps       ncg     rms          rms(c)
DAV:   1    -0.152513848495E+03    0.22094E-03   -0.29093E-01  2912   0.237E+00    0.728E-02
DAV:   2    -0.152514472321E+03   -0.62383E-03   -0.70882E-03  3224   0.339E-01    0.439E-02
DAV:   3    -0.152514427013E+03    0.45308E-04   -0.89658E-05  3352   0.467E-02    0.307E-02
DAV:   4    -0.152514386785E+03    0.40227E-04   -0.94364E-05  3200   0.550E-02    0.118E-02
DAV:   5    -0.152514376624E+03    0.10161E-04   -0.33120E-05  2828   0.396E-02    0.917E-03
DAV:   6    -0.152514367405E+03    0.92197E-05   -0.14505E-05  2188   0.354E-02
  10 F= -.15251437E+03 E0= -.15251034E+03  d E =-.127505E-02
       N       E                     dE             d eps       ncg     rms          rms(c)
DAV:   1    -0.152515016287E+03   -0.63966E-03   -0.29940E-01  2920   0.235E+00    0.709E-02
DAV:   2    -0.152515576925E+03   -0.56064E-03   -0.64980E-03  3288   0.319E-01    0.435E-02
DAV:   3    -0.152515529552E+03    0.47373E-04   -0.79986E-05  3232   0.528E-02    0.296E-02
DAV:   4    -0.152515499934E+03    0.29618E-04   -0.12609E-04  3280   0.693E-02    0.106E-02
DAV:   5    -0.152515500945E+03   -0.10108E-05   -0.55028E-05  3056   0.317E-02    0.102E-02
DAV:   6    -0.152515499636E+03    0.13092E-05   -0.43671E-06  1672   0.978E-03
  11 F= -.15251550E+03 E0= -.15251139E+03  d E =-.113223E-02
       N       E                     dE             d eps       ncg     rms          rms(c)
DAV:   1    -0.152513902926E+03    0.15980E-02   -0.15890E+00  2912   0.541E+00    0.164E-01
DAV:   2    -0.152516835590E+03   -0.29327E-02   -0.34481E-02  3296   0.734E-01    0.995E-02
DAV:   3    -0.152516570353E+03    0.26524E-03   -0.43314E-04  3356   0.124E-01    0.680E-02
DAV:   4    -0.152516369159E+03    0.20119E-03   -0.68436E-04  3408   0.179E-01    0.251E-02
DAV:   5    -0.152516363624E+03    0.55348E-05   -0.36340E-04  3296   0.879E-02    0.273E-02
DAV:   6    -0.152516352452E+03    0.11172E-04   -0.31999E-05  2536   0.262E-02    0.203E-02
DAV:   7    -0.152516328448E+03    0.24004E-04   -0.25537E-05  2612   0.303E-02    0.129E-02
DAV:   8    -0.152516295215E+03    0.33233E-04   -0.49439E-05  3036   0.662E-02    0.144E-02
DAV:   9    -0.152516287630E+03    0.75847E-05   -0.36757E-05  2736   0.338E-02
  12 F= -.15251629E+03 E0= -.15251197E+03  d E =-.192023E-02
       N       E                     dE             d eps       ncg     rms          rms(c)
DAV:   1    -0.152516575671E+03   -0.28046E-03   -0.20888E-01  2864   0.203E+00    0.662E-02
DAV:   2    -0.152516990358E+03   -0.41469E-03   -0.50860E-03  3236   0.293E-01    0.337E-02
DAV:   3    -0.152516961794E+03    0.28564E-04   -0.14741E-04  3336   0.556E-02    0.252E-02
DAV:   4    -0.152516936646E+03    0.25148E-04   -0.27014E-05  2340   0.329E-02    0.140E-02
DAV:   5    -0.152516898286E+03    0.38360E-04   -0.25894E-05  2448   0.673E-02    0.100E-02
DAV:   6    -0.152516879475E+03    0.18812E-04   -0.22752E-05  2456   0.517E-02    0.934E-03
DAV:   7    -0.152516858435E+03    0.21040E-04   -0.22940E-05  2532   0.590E-02    0.681E-03
DAV:   8    -0.152516832379E+03    0.26056E-04   -0.58394E-06  2088   0.679E-02    0.568E-03
DAV:   9    -0.152516781233E+03    0.51147E-04   -0.61690E-05  3336   0.175E-01    0.539E-03
DAV:  10    -0.152516772783E+03    0.84500E-05   -0.88013E-05  3240   0.105E-01
  13 F= -.15251677E+03 E0= -.15251234E+03  d E =-.485152E-03
       N       E                     dE             d eps       ncg     rms          rms(c)
DAV:   1    -0.152516823478E+03   -0.42246E-04   -0.10372E-01  2912   0.142E+00    0.446E-02
DAV:   2    -0.152517034234E+03   -0.21076E-03   -0.24745E-03  3252   0.201E-01    0.251E-02
DAV:   3    -0.152517021989E+03    0.12245E-04   -0.51606E-05  3216   0.300E-02    0.180E-02
DAV:   4    -0.152517014014E+03    0.79754E-05   -0.20542E-05  1948   0.218E-02    0.802E-03
DAV:   5    -0.152517010722E+03    0.32916E-05   -0.97127E-06  1844   0.204E-02    0.590E-03
DAV:   6    -0.152517009104E+03    0.16180E-05   -0.51789E-06  1816   0.182E-02
  14 F= -.15251701E+03 E0= -.15251252E+03  d E =-.721474E-03
       N       E                     dE             d eps       ncg     rms          rms(c)
DAV:   1    -0.152516263401E+03    0.74732E-03   -0.41317E-01  2856   0.284E+00    0.916E-02
DAV:   2    -0.152517120036E+03   -0.85664E-03   -0.10070E-02  3248   0.407E-01    0.483E-02
DAV:   3    -0.152517073821E+03    0.46215E-04   -0.22644E-04  3336   0.646E-02    0.350E-02
DAV:   4    -0.152517043265E+03    0.30555E-04   -0.74820E-05  3240   0.403E-02    0.169E-02
DAV:   5    -0.152517023089E+03    0.20177E-04   -0.30511E-05  2544   0.462E-02    0.106E-02
DAV:   6    -0.152517013588E+03    0.95009E-05   -0.22108E-05  2456   0.431E-02
  15 F= -.15251701E+03 E0= -.15251242E+03  d E =-.725957E-03
       N       E                     dE             d eps       ncg     rms          rms(c)
DAV:   1    -0.152517140239E+03   -0.11715E-03   -0.32869E-01  2920   0.254E+00    0.790E-02
DAV:   2    -0.152517854824E+03   -0.71459E-03   -0.77746E-03  3212   0.350E-01    0.407E-02
DAV:   3    -0.152517816863E+03    0.37961E-04   -0.85290E-05  3272   0.425E-02    0.267E-02
DAV:   4    -0.152517796319E+03    0.20544E-04   -0.64312E-05  3212   0.426E-02    0.925E-03
DAV:   5    -0.152517795600E+03    0.71942E-06   -0.25603E-05  2220   0.232E-02    0.657E-03
DAV:   6    -0.152517795267E+03    0.33235E-06   -0.58136E-06  1660   0.131E-02
  16 F= -.15251780E+03 E0= -.15251314E+03  d E =-.781679E-03
       N       E                     dE             d eps       ncg     rms          rms(c)
DAV:   1    -0.152513509961E+03    0.42856E-02   -0.29548E+00  2904   0.761E+00    0.229E-01
DAV:   2    -0.152519857700E+03   -0.63477E-02   -0.69215E-02  3196   0.105E+00    0.126E-01
DAV:   3    -0.152519486551E+03    0.37115E-03   -0.74173E-04  3360   0.130E-01    0.836E-02
DAV:   4    -0.152519245618E+03    0.24093E-03   -0.51722E-04  3316   0.141E-01    0.299E-02
DAV:   5    -0.152519209705E+03    0.35914E-04   -0.31730E-04  3272   0.100E-01    0.192E-02
DAV:   6    -0.152519193630E+03    0.16074E-04   -0.76963E-05  3224   0.467E-02    0.128E-02
DAV:   7    -0.152519173293E+03    0.20338E-04   -0.79550E-06  2012   0.289E-02    0.778E-03
DAV:   8    -0.152519133337E+03    0.39956E-04   -0.88657E-06  2100   0.621E-02    0.571E-03
DAV:   9    -0.152519096310E+03    0.37027E-04   -0.15176E-05  2444   0.761E-02    0.673E-03
DAV:  10    -0.152519016345E+03    0.79965E-04   -0.96243E-05  3532   0.237E-01    0.122E-02
DAV:  11    -0.152519000715E+03    0.15630E-04   -0.15291E-04  3384   0.123E-01    0.939E-03
DAV:  12    -0.152519004220E+03   -0.35051E-05   -0.85270E-05  2888   0.401E-02
  17 F= -.15251900E+03 E0= -.15251422E+03  d E =-.199063E-02
       N       E                     dE             d eps       ncg     rms          rms(c)
DAV:   1    -0.152519643643E+03   -0.64293E-03   -0.12490E-01  2944   0.156E+00    0.486E-02
DAV:   2    -0.152519899069E+03   -0.25543E-03   -0.32518E-03  3288   0.238E-01    0.312E-02
DAV:   3    -0.152519873041E+03    0.26028E-04   -0.10385E-04  3360   0.493E-02    0.242E-02
DAV:   4    -0.152519852806E+03    0.20235E-04   -0.21280E-05  2240   0.245E-02    0.140E-02
DAV:   5    -0.152519824666E+03    0.28141E-04   -0.41976E-05  2976   0.535E-02    0.833E-03
DAV:   6    -0.152519819916E+03    0.47494E-05   -0.26020E-05  2552   0.308E-02
  18 F= -.15251982E+03 E0= -.15251503E+03  d E =-.815696E-03
       N       E                     dE             d eps       ncg     rms          rms(c)
DAV:   1    -0.152519815536E+03    0.91294E-05   -0.27627E-01  2912   0.232E+00    0.781E-02
DAV:   2    -0.152520392230E+03   -0.57669E-03   -0.74444E-03  3288   0.363E-01    0.462E-02
DAV:   3    -0.152520330930E+03    0.61300E-04   -0.24921E-04  3376   0.772E-02    0.360E-02
DAV:   4    -0.152520283460E+03    0.47470E-04   -0.54069E-05  3224   0.376E-02    0.202E-02
DAV:   5    -0.152520215936E+03    0.67524E-04   -0.80262E-05  3172   0.804E-02    0.115E-02
DAV:   6    -0.152520199257E+03    0.16679E-04   -0.57635E-05  3080   0.540E-02    0.956E-03
DAV:   7    -0.152520187518E+03    0.11739E-04   -0.45254E-05  2876   0.531E-02    0.823E-03
DAV:   8    -0.152520175134E+03    0.12385E-04   -0.80785E-06  2128   0.441E-02    0.498E-03
DAV:   9    -0.152520166968E+03    0.81653E-05   -0.17855E-05  2412   0.459E-02
  19 F= -.15252017E+03 E0= -.15251538E+03  d E =-.116275E-02
       N       E                     dE             d eps       ncg     rms          rms(c)
DAV:   1    -0.152520394313E+03   -0.21918E-03   -0.24082E-01  2920   0.216E+00    0.621E-02
DAV:   2    -0.152520884946E+03   -0.49063E-03   -0.54527E-03  3240   0.296E-01    0.390E-02
DAV:   3    -0.152520850125E+03    0.34821E-04   -0.66267E-05  3296   0.476E-02    0.276E-02
DAV:   4    -0.152520824786E+03    0.25339E-04   -0.74968E-05  3168   0.572E-02    0.114E-02
DAV:   5    -0.152520821355E+03    0.34316E-05   -0.40899E-05  2944   0.357E-02    0.867E-03
DAV:   6    -0.152520819780E+03    0.15742E-05   -0.91934E-06  1688   0.149E-02
  20 F= -.15252082E+03 E0= -.15251604E+03  d E =-.652812E-03
       N       E                     dE             d eps       ncg     rms          rms(c)
DAV:   1    -0.152518824579E+03    0.19968E-02   -0.14308E+00  2904   0.527E+00    0.154E-01
DAV:   2    -0.152521744913E+03   -0.29203E-02   -0.32448E-02  3236   0.723E-01    0.942E-02
DAV:   3    -0.152521537494E+03    0.20742E-03   -0.39453E-04  3368   0.118E-01    0.658E-02
DAV:   4    -0.152521394474E+03    0.14302E-03   -0.45962E-04  3320   0.139E-01    0.263E-02
DAV:   5    -0.152521383447E+03    0.11027E-04   -0.24068E-04  3376   0.819E-02    0.221E-02
DAV:   6    -0.152521377662E+03    0.57842E-05   -0.43856E-05  2776   0.296E-02
  21 F= -.15252138E+03 E0= -.15251661E+03  d E =-.121069E-02
       N       E                     dE             d eps       ncg     rms          rms(c)
DAV:   1    -0.152521725123E+03   -0.34168E-03   -0.18270E-01  2960   0.185E+00    0.618E-02
DAV:   2    -0.152522041029E+03   -0.31591E-03   -0.43553E-03  3336   0.280E-01    0.387E-02
DAV:   3    -0.152522003531E+03    0.37497E-04   -0.19184E-04  3344   0.714E-02    0.309E-02
DAV:   4    -0.152521978366E+03    0.25166E-04   -0.56725E-05  3168   0.400E-02    0.170E-02
DAV:   5    -0.152521945519E+03    0.32847E-04   -0.33248E-05  2920   0.527E-02    0.848E-03
DAV:   6    -0.152521933637E+03    0.11882E-04   -0.40811E-05  2856   0.529E-02    0.741E-03
DAV:   7    -0.152521933720E+03   -0.83408E-07   -0.41313E-05  2804   0.293E-02
  22 F= -.15252193E+03 E0= -.15251717E+03  d E =-.556058E-03
       N       E                     dE             d eps       ncg     rms          rms(c)
DAV:   1    -0.152521932100E+03    0.15363E-05   -0.37561E-02  2960   0.838E-01    0.275E-02
DAV:   2    -0.152521995505E+03   -0.63404E-04   -0.91965E-04  3336   0.128E-01    0.174E-02
DAV:   3    -0.152521985001E+03    0.10504E-04   -0.35086E-05  2920   0.329E-02    0.138E-02
DAV:   4    -0.152521978269E+03    0.67317E-05   -0.11446E-05  1972   0.206E-02    0.817E-03
DAV:   5    -0.152521967019E+03    0.11250E-04   -0.11548E-05  2184   0.362E-02    0.379E-03
DAV:   6    -0.152521963984E+03    0.30346E-05   -0.15993E-05  2352   0.285E-02
  23 F= -.15252196E+03 E0= -.15251720E+03  d E =-.586322E-03
       N       E                     dE             d eps       ncg     rms          rms(c)
DAV:   1    -0.152522124351E+03   -0.15733E-03   -0.15662E-01  2968   0.168E+00    0.531E-02
DAV:   2    -0.152522386027E+03   -0.26168E-03   -0.34636E-03  3360   0.244E-01    0.324E-02
DAV:   3    -0.152522352470E+03    0.33557E-04   -0.11510E-04  3368   0.594E-02    0.235E-02
DAV:   4    -0.152522328765E+03    0.23705E-04   -0.33938E-05  2984   0.384E-02    0.129E-02
DAV:   5    -0.152522301752E+03    0.27013E-04   -0.22449E-05  2616   0.588E-02    0.643E-03
DAV:   6    -0.152522290584E+03    0.11168E-04   -0.33784E-05  2720   0.554E-02    0.585E-03
DAV:   7    -0.152522283971E+03    0.66127E-05   -0.31255E-05  2736   0.510E-02
  24 F= -.15252228E+03 E0= -.15251753E+03  d E =-.319987E-03
       N       E                     dE             d eps       ncg     rms          rms(c)
DAV:   1    -0.152522248131E+03    0.42453E-04   -0.15694E-02  3064   0.538E-01    0.169E-02
DAV:   2    -0.152522277248E+03   -0.29117E-04   -0.40957E-04  3360   0.860E-02    0.135E-02
DAV:   3    -0.152522270395E+03    0.68537E-05   -0.11311E-05  1944   0.186E-02    0.944E-03
DAV:   4    -0.152522260561E+03    0.98339E-05   -0.90211E-06  2060   0.247E-02    0.403E-03
DAV:   5    -0.152522254900E+03    0.56605E-05   -0.46335E-06  2052   0.269E-02    0.353E-03
DAV:   6    -0.152522248326E+03    0.65744E-05   -0.51606E-06  2068   0.422E-02
  25 F= -.15252225E+03 E0= -.15251750E+03  d E =-.284341E-03
       N       E                     dE             d eps       ncg     rms          rms(c)
DAV:   1    -0.152522282684E+03   -0.27783E-04   -0.15330E-01  2912   0.167E+00    0.527E-02
DAV:   2    -0.152522587294E+03   -0.30461E-03   -0.35181E-03  3344   0.241E-01    0.319E-02
DAV:   3    -0.152522567891E+03    0.19403E-04   -0.78399E-05  3312   0.418E-02    0.235E-02
DAV:   4    -0.152522554998E+03    0.12894E-04   -0.42581E-05  2876   0.311E-02    0.104E-02
DAV:   5    -0.152522549593E+03    0.54044E-05   -0.12280E-05  2060   0.239E-02    0.598E-03
DAV:   6    -0.152522548405E+03    0.11888E-05   -0.81129E-06  1932   0.204E-02
  26 F= -.15252255E+03 E0= -.15251781E+03  d E =-.300079E-03
       N       E                     dE             d eps       ncg     rms          rms(c)
DAV:   1    -0.152522515911E+03    0.33682E-04   -0.61322E-02  2904   0.106E+00    0.334E-02
DAV:   2    -0.152522633166E+03   -0.11725E-03   -0.13684E-03  3344   0.150E-01    0.189E-02
DAV:   3    -0.152522624685E+03    0.84810E-05   -0.24045E-05  2448   0.257E-02    0.140E-02
DAV:   4    -0.152522617946E+03    0.67390E-05   -0.20195E-05  2156   0.260E-02    0.542E-03
DAV:   5    -0.152522616576E+03    0.13700E-05   -0.11066E-05  1980   0.208E-02    0.544E-03
DAV:   6    -0.152522616174E+03    0.40162E-06   -0.44160E-06  1644   0.108E-02
  27 F= -.15252262E+03 E0= -.15251789E+03  d E =-.367849E-03
       N       E                     dE             d eps       ncg     rms          rms(c)
DAV:   1    -0.152522622705E+03   -0.61291E-05   -0.20714E-01  2968   0.196E+00    0.620E-02
DAV:   2    -0.152523008284E+03   -0.38558E-03   -0.47308E-03  3288   0.285E-01    0.367E-02
DAV:   3    -0.152522968902E+03    0.39382E-04   -0.12952E-04  3344   0.616E-02    0.277E-02
DAV:   4    -0.152522933832E+03    0.35069E-04   -0.39258E-05  2848   0.444E-02    0.146E-02
DAV:   5    -0.152522892990E+03    0.40842E-04   -0.36140E-05  3016   0.788E-02    0.899E-03
DAV:   6    -0.152522879800E+03    0.13190E-04   -0.49662E-05  2984   0.577E-02    0.838E-03
DAV:   7    -0.152522862656E+03    0.17144E-04   -0.38073E-05  2816   0.761E-02    0.102E-02
DAV:   8    -0.152522842017E+03    0.20639E-04   -0.90633E-06  2184   0.922E-02    0.115E-02
DAV:   9    -0.152522826349E+03    0.15668E-04   -0.30457E-05  2744   0.855E-02    0.724E-03
DAV:  10    -0.152522822655E+03    0.36940E-05   -0.34056E-05  2760   0.585E-02
  28 F= -.15252282E+03 E0= -.15251810E+03  d E =-.206481E-03
       N       E                     dE             d eps       ncg     rms          rms(c)
DAV:   1    -0.152522830613E+03   -0.42642E-05   -0.81595E-03  3064   0.389E-01    0.160E-02
DAV:   2    -0.152522845573E+03   -0.14960E-04   -0.20857E-04  3212   0.619E-02    0.765E-03
DAV:   3    -0.152522844379E+03    0.11942E-05   -0.99423E-06  1816   0.152E-02    0.543E-03
DAV:   4    -0.152522843277E+03    0.11023E-05   -0.21244E-06  1632   0.734E-03    0.275E-03
DAV:   5    -0.152522842261E+03    0.10159E-05   -0.16417E-06  1924   0.983E-03    0.185E-03
DAV:   6    -0.152522841964E+03    0.29713E-06   -0.11430E-06  1608   0.754E-03
  29 F= -.15252284E+03 E0= -.15251812E+03  d E =-.225790E-03
       N       E                     dE             d eps       ncg     rms          rms(c)
DAV:   1    -0.152522842003E+03    0.25822E-06   -0.56920E-04  2912   0.103E-01    0.365E-03
DAV:   2    -0.152522843017E+03   -0.10145E-05   -0.14790E-05  1972   0.168E-02    0.211E-03
DAV:   3    -0.152522842821E+03    0.19655E-06   -0.91004E-07  1572   0.497E-03    0.168E-03
DAV:   4    -0.152522842392E+03    0.42877E-06   -0.29622E-07  1624   0.605E-03    0.756E-04
DAV:   5    -0.152522842100E+03    0.29207E-06   -0.34561E-07  1696   0.697E-03    0.991E-04
DAV:   6    -0.152522842075E+03    0.25284E-07   -0.47834E-07  1544   0.316E-03
  30 F= -.15252284E+03 E0= -.15251812E+03  d E =-.225900E-03
       N       E                     dE             d eps       ncg     rms          rms(c)
DAV:   1    -0.152522880873E+03   -0.38773E-04   -0.45741E-02  2912   0.932E-01    0.279E-02
DAV:   2    -0.152522965290E+03   -0.84417E-04   -0.10272E-03  3320   0.132E-01    0.175E-02
DAV:   3    -0.152522957275E+03    0.80145E-05   -0.19992E-05  2224   0.253E-02    0.126E-02
DAV:   4    -0.152522950836E+03    0.64396E-05   -0.11384E-05  1932   0.231E-02    0.568E-03
DAV:   5    -0.152522947590E+03    0.32451E-05   -0.79802E-06  2040   0.260E-02    0.367E-03
DAV:   6    -0.152522947199E+03    0.39102E-06   -0.87104E-06  1656   0.169E-02
  31 F= -.15252295E+03 E0= -.15251822E+03  d E =-.105125E-03
