 vasp.5.3.5 31Mar14 (build Apr 08 2024 10:12:10) complex                        
  
 executed on             LinuxIFC date 2024.07.29  10:25:11
 running on    8 total cores
 distrk:  each k-point on    8 cores,    1 groups
 distr:  one band on NCORES_PER_BAND=   4 cores,    2 groups


--------------------------------------------------------------------------------------------------------


 INCAR:
 POTCAR:    PAW_PBE O 08Apr2002                   
 POTCAR:    PAW_PBE Mg 13Apr2007                  
 POTCAR:    PAW_PBE Al 04Jan2001                  
 POTCAR:    PAW_PBE O 08Apr2002                   
   VRHFIN =O: s2p4                                                              
   LEXCH  = PE                                                                  
   EATOM  =   432.3788 eV,   31.7789 Ry                                         
                                                                                
   TITEL  = PAW_PBE O 08Apr2002                                                 
   LULTRA =        F    use ultrasoft PP ?                                      
   IUNSCR =        1    unscreen: 0-lin 1-nonlin 2-no                           
   RPACOR =    1.200    partial core radius                                     
   POMASS =   16.000; ZVAL   =    6.000    mass and valenz                      
   RCORE  =    1.520    outmost cutoff radius                                   
   RWIGS  =    1.550; RWIGS  =    0.820    wigner-seitz radius (au A)           
   ENMAX  =  400.000; ENMIN  =  300.000 eV                                      
   ICORE  =        2    local potential                                         
   LCOR   =        T    correct aug charges                                     
   LPAW   =        T    paw PP                                                  
   EAUG   =  605.392                                                            
   DEXC   =    0.000                                                            
   RMAX   =    1.553    core radius for proj-oper                               
   RAUG   =    1.300    factor for augmentation sphere                          
   RDEP   =    1.550    radius for radial grids                                 
   RDEPT  =    1.329    core radius for aug-charge                              
                                                                                
   Atomic configuration                                                         
    4 entries                                                                   
     n  l   j            E        occ.                                          
     1  0  0.50      -514.6923   2.0000                                         
     2  0  0.50       -23.9615   2.0000                                         
     2  1  0.50        -9.0305   4.0000                                         
     3  2  1.50        -9.5241   0.0000                                         
   Description                                                                  
     l       E           TYP  RCUT    TYP  RCUT                                 
     0    -23.9615318     23  1.200                                             
     0     -9.5240782     23  1.200                                             
     1     -9.0304911     23  1.520                                             
     1      8.1634956     23  1.520                                             
     2     -9.5240782      7  1.500                                             
  local pseudopotential read in
  partial core-charges read in
  partial kinetic energy density read in
  kinetic energy density of atom read in
  atomic valenz-charges read in
  non local Contribution for L=           0  read in
    real space projection operators read in
  non local Contribution for L=           0  read in
    real space projection operators read in
  non local Contribution for L=           1  read in
    real space projection operators read in
  non local Contribution for L=           1  read in
    real space projection operators read in
    PAW grid and wavefunctions read in
 
   number of l-projection  operators is LMAX  =           4
   number of lm-projection operators is LMMAX =           8
 
 POTCAR:    PAW_PBE Mg 13Apr2007                  
   VRHFIN =Mg: s2p0                                                             
   LEXCH  = PE                                                                  
   EATOM  =    23.0369 eV,    1.6932 Ry                                         
                                                                                
   TITEL  = PAW_PBE Mg 13Apr2007                                                
   LULTRA =        F    use ultrasoft PP ?                                      
   IUNSCR =        1    unscreen: 0-lin 1-nonlin 2-no                           
   RPACOR =    1.500    partial core radius                                     
   POMASS =   24.305; ZVAL   =    2.000    mass and valenz                      
   RCORE  =    2.000    outmost cutoff radius                                   
   RWIGS  =    2.880; RWIGS  =    1.524    wigner-seitz radius (au A)           
   ENMAX  =  200.000; ENMIN  =  100.000 eV                                      
   RCLOC  =    1.506    cutoff for local pot                                    
   LCOR   =        T    correct aug charges                                     
   LPAW   =        T    paw PP                                                  
   EAUG   =  454.734                                                            
   DEXC   =    0.000                                                            
   RMAX   =    2.045    core radius for proj-oper                               
   RAUG   =    1.300    factor for augmentation sphere                          
   RDEP   =    2.025    radius for radial grids                                 
   RDEPT  =    1.942    core radius for aug-charge                              
                                                                                
   Atomic configuration                                                         
    6 entries                                                                   
     n  l   j            E        occ.                                          
     1  0  0.50     -1259.6230   2.0000                                         
     2  0  0.50       -79.8442   2.0000                                         
     2  1  1.50       -46.6121   6.0000                                         
     3  0  0.50        -4.7055   2.0000                                         
     3  1  0.50        -1.3660   0.0000                                         
     3  2  1.50        -1.3606   0.0000                                         
   Description                                                                  
     l       E           TYP  RCUT    TYP  RCUT                                 
     0     -4.7054661     23  2.000                                             
     0     27.2116520     23  2.000                                             
     1      1.3605826     23  2.000                                             
     1     27.2116520     23  2.000                                             
     2     -1.3605826     23  2.000                                             
  local pseudopotential read in
  partial core-charges read in
  partial kinetic energy density read in
  atomic valenz-charges read in
  non local Contribution for L=           0  read in
    real space projection operators read in
  non local Contribution for L=           0  read in
    real space projection operators read in
  non local Contribution for L=           1  read in
    real space projection operators read in
  non local Contribution for L=           1  read in
    real space projection operators read in
  non local Contribution for L=           2  read in
    real space projection operators read in
    PAW grid and wavefunctions read in
 
   number of l-projection  operators is LMAX  =           5
   number of lm-projection operators is LMMAX =          13
 
 POTCAR:    PAW_PBE Al 04Jan2001                  
   VRHFIN =Al: s2p1                                                             
   LEXCH  = PE                                                                  
   EATOM  =    53.5387 eV,    3.9350 Ry                                         
                                                                                
   TITEL  = PAW_PBE Al 04Jan2001                                                
   LULTRA =        F    use ultrasoft PP ?                                      
   IUNSCR =        1    unscreen: 0-lin 1-nonlin 2-no                           
   RPACOR =    1.500    partial core radius                                     
   POMASS =   26.981; ZVAL   =    3.000    mass and valenz                      
   RCORE  =    1.900    outmost cutoff radius                                   
   RWIGS  =    2.650; RWIGS  =    1.402    wigner-seitz radius (au A)           
   ENMAX  =  240.300; ENMIN  =  180.225 eV                                      
   ICORE  =        2    local potential                                         
   LCOR   =        T    correct aug charges                                     
   LPAW   =        T    paw PP                                                  
   EAUG   =  291.052                                                            
   DEXC   =    0.000                                                            
   RMAX   =    1.939    core radius for proj-oper                               
   RAUG   =    1.300    factor for augmentation sphere                          
   RDEP   =    1.966    radius for radial grids                                 
   RDEPT  =    1.856    core radius for aug-charge                              
                                                                                
   Atomic configuration                                                         
    6 entries                                                                   
     n  l   j            E        occ.                                          
     1  0  0.50     -1511.1048   2.0000                                         
     2  0  0.50      -108.1629   2.0000                                         
     2  1  1.50       -69.6402   6.0000                                         
     3  0  0.50        -7.7528   2.0000                                         
     3  1  1.50        -2.7121   1.0000                                         
     3  2  2.50        -2.7212   0.0000                                         
   Description                                                                  
     l       E           TYP  RCUT    TYP  RCUT                                 
     0     -7.7528455     23  1.900                                             
     0     -3.3096929     23  1.900                                             
     1     -2.7120682     23  1.900                                             
     1     13.6058260     23  1.900                                             
     2     -2.7211652      7  1.900                                             
  local pseudopotential read in
  partial core-charges read in
  partial kinetic energy density read in
  atomic valenz-charges read in
  non local Contribution for L=           0  read in
    real space projection operators read in
  non local Contribution for L=           0  read in
    real space projection operators read in
  non local Contribution for L=           1  read in
    real space projection operators read in
  non local Contribution for L=           1  read in
    real space projection operators read in
    PAW grid and wavefunctions read in
 
   number of l-projection  operators is LMAX  =           4
   number of lm-projection operators is LMMAX =           8
 

 ----------------------------------------------------------------------------- 
|                                                                             |
|  ADVICE TO THIS USER RUNNING 'VASP/VAMP'   (HEAR YOUR MASTER'S VOICE ...):  |
|                                                                             |
|      You have a (more or less) 'large supercell' and for larger cells       |
|      it might be more efficient to use real space projection opertators     |
|      So try LREAL= Auto  in the INCAR   file.                               |
|      Mind: At the moment your POTCAR file does not contain real space       |
|       projectors, and has to be modified,  BUT if you                       |
|      want to do an extremely  accurate calculation you might also keep the  |
|      reciprocal projection scheme          (i.e. LREAL=.FALSE.)             |
|                                                                             |
 ----------------------------------------------------------------------------- 

  PAW_PBE O 08Apr2002                   :
 energy of atom  1       EATOM= -432.3788
 kinetic energy error for atom=    0.0208 (will be added to EATOM!!)
  PAW_PBE Mg 13Apr2007                  :
 energy of atom  2       EATOM=  -23.0369
 kinetic energy error for atom=    0.0000 (will be added to EATOM!!)
  PAW_PBE Al 04Jan2001                  :
 energy of atom  3       EATOM=  -53.5387
 kinetic energy error for atom=    0.0002 (will be added to EATOM!!)
 
 
 POSCAR: Layer                                   
  positions in direct lattice
  velocities in cartesian coordinates
 exchange correlation table for  LEXCH =        8
   RHO(1)=    0.500       N(1)  =     2000
   RHO(2)=  100.500       N(2)  =     4000
 


--------------------------------------------------------------------------------------------------------


 ion  position               nearest neighbor table
   1  0.333  0.667  0.222-  12 2.15  12 2.15  12 2.15  23 2.27  23 2.27  23 2.27
   2  0.000  0.000  0.344-  16 2.12  16 2.12  16 2.12  19 2.13  19 2.13  19 2.13
   3  0.333  0.667  0.404-  13 2.13  13 2.13  13 2.13  16 2.13  16 2.13  16 2.13
   4  0.000  0.000  0.525-  20 2.12  20 2.12  20 2.12  17 2.13  17 2.13  17 2.13
   5  0.333  0.667  0.585-  17 2.12  17 2.12  17 2.12  14 2.13  14 2.13  14 2.13
   6  0.000  0.000  0.705-  21 2.13  21 2.13  21 2.13  18 2.13  18 2.13  18 2.13
   7  0.333  0.667  0.765-  15 2.12  15 2.12  15 2.12  18 2.13  18 2.13  18 2.13
   8  0.667  0.333  0.284-  19 2.13  19 2.13  19 2.13  12 2.13  12 2.13  12 2.13
   9  0.667  0.333  0.464-  20 2.12  20 2.12  20 2.12  13 2.13  13 2.13  13 2.13
  10  0.667  0.333  0.645-  14 2.13  14 2.13  14 2.13  21 2.13  21 2.13  21 2.13
  11  0.667  0.333  0.827-  15 2.15  15 2.15  15 2.15  26 2.27  26 2.27  26 2.27
  12  0.000  0.000  0.254-   8 2.13   8 2.13   8 2.13   1 2.15   1 2.15   1 2.15  23 2.78  19 3.04
                            19 3.04  19 3.04
  13  0.000  0.000  0.434-   3 2.13   3 2.13   3 2.13   9 2.13   9 2.13   9 2.13  20 3.04  20 3.04
                            20 3.04  16 3.04  16 3.04  16 3.04
  14  0.000  0.000  0.615-  10 2.13  10 2.13  10 2.13   5 2.13   5 2.13   5 2.13  17 3.04  17 3.04
                            17 3.04  21 3.04  21 3.04  21 3.04
  15  0.000  0.000  0.796-   7 2.12   7 2.12   7 2.12  11 2.15  11 2.15  11 2.15  26 2.78  18 3.04
                            18 3.04  18 3.04
  16  0.667  0.333  0.374-   2 2.12   2 2.12   2 2.12   3 2.13   3 2.13   3 2.13  13 3.04  13 3.04
                            13 3.04  19 3.04  19 3.04  19 3.04
  17  0.667  0.333  0.555-   5 2.12   5 2.12   5 2.12   4 2.13   4 2.13   4 2.13  20 3.04  20 3.04
                            20 3.04  14 3.04  14 3.04  14 3.04
  18  0.667  0.333  0.735-   6 2.13   6 2.13   6 2.13   7 2.13   7 2.13   7 2.13  15 3.04  15 3.04
                            15 3.04  21 3.04  21 3.04  21 3.04
  19  0.333  0.667  0.314-   8 2.13   8 2.13   8 2.13   2 2.13   2 2.13   2 2.13  16 3.04  16 3.04
                            16 3.04  12 3.04  12 3.04  12 3.04
  20  0.333  0.667  0.494-   4 2.12   4 2.12   4 2.12   9 2.12   9 2.12   9 2.12  17 3.04  17 3.04
                            17 3.04  13 3.04  13 3.04  13 3.04
  21  0.333  0.667  0.675-   6 2.13   6 2.13   6 2.13  10 2.13  10 2.13  10 2.13  14 3.04  14 3.04
                            14 3.04  18 3.04  18 3.04  18 3.04
  22  0.000  0.000  0.025-  25 2.85  25 2.85  25 2.85  27 2.85  27 2.85  27 2.85
  23  0.000  0.000  0.187-   1 2.27   1 2.27   1 2.27  24 2.78  24 2.78  24 2.78  12 2.78
  24  0.667  0.333  0.134-  23 2.78  23 2.78  23 2.78  25 2.86  25 2.86  25 2.86
  25  0.333  0.667  0.079-  22 2.85  22 2.85  22 2.85  24 2.86  24 2.86  24 2.86
  26  0.000  0.000  0.862-  11 2.27  11 2.27  11 2.27  28 2.78  28 2.78  28 2.78  15 2.78
  27  0.667  0.333  0.970-  22 2.85  22 2.85  22 2.85  28 2.86  28 2.86  28 2.86
  28  0.333  0.667  0.915-  26 2.78  26 2.78  26 2.78  27 2.86  27 2.86  27 2.86
 
  LATTYP: Found a hexagonal cell.
 ALAT       =     2.9737040142
 C/A-ratio  =    13.9986038452
  
  Lattice vectors:
  
 A1 = (   2.5753034102,  -1.4868516771,   0.0000000000)
 A2 = (   0.0000000000,   2.9737033542,   0.0000000000)
 A3 = (  -0.0000000000,   0.0000000000,  41.6277044477)


Analysis of symmetry for initial positions (statically):
=====================================================================
 Subroutine PRICEL returns:
 Original cell was already a primitive cell.
 

 Routine SETGRP: Setting up the symmetry group for a 
 hexagonal supercell.


 Subroutine GETGRP returns: Found  6 space group operations
 (whereof  6 operations were pure point group operations)
 out of a pool of 24 trial point group operations.


The static configuration has the point symmetry C_3v.


Analysis of symmetry for dynamics (positions and initial velocities):
=====================================================================
 Subroutine PRICEL returns:
 Original cell was already a primitive cell.
 

 Routine SETGRP: Setting up the symmetry group for a 
 hexagonal supercell.


 Subroutine GETGRP returns: Found  6 space group operations
 (whereof  6 operations were pure point group operations)
 out of a pool of 24 trial point group operations.


The dynamic configuration has the point symmetry C_3v.


Analysis of constrained symmetry for selective dynamics:
=====================================================================
 Subroutine PRICEL returns:
 Original cell was already a primitive cell.
 

 Routine SETGRP: Setting up the symmetry group for a 
 hexagonal supercell.


 Subroutine GETGRP returns: Found  6 space group operations
 (whereof  6 operations were pure point group operations)
 out of a pool of 24 trial point group operations.


The constrained configuration has the point symmetry C_3v.
 
 
 KPOINTS: K-Spacing Value to Generate K-Mesh: 0.02

Automatic generation of k-mesh.
Space group operators:
 irot       det(A)        alpha          n_x          n_y          n_z        tau_x        tau_y        tau_z
    1     1.000000     0.000001     1.000000     0.000000     0.000000     0.000000     0.000000     0.000000
    2     1.000000   120.000000     0.000000     0.000000    -1.000000     0.000000     0.000000     0.000000
    3     1.000000   120.000000    -0.000000     0.000000     1.000000     0.000000     0.000000     0.000000
    4    -1.000000   180.000000    -0.866025     0.500000    -0.000000     0.000000     0.000000     0.000000
    5    -1.000000   180.000000     0.000000     1.000000     0.000000     0.000000     0.000000     0.000000
    6    -1.000000   180.000000    -0.866025    -0.500000    -0.000000     0.000000     0.000000     0.000000
 
 Subroutine IBZKPT returns following result:
 ===========================================
 
 Found     21 irreducible k-points:
 
 Following reciprocal coordinates:
            Coordinates               Weight
  0.000000  0.000000  0.000000      1.000000
  0.076923  0.000000 -0.000000      6.000000
  0.153846  0.000000 -0.000000      6.000000
  0.230769  0.000000 -0.000000      6.000000
  0.307692  0.000000 -0.000000      6.000000
  0.384615  0.000000  0.000000      6.000000
  0.461538  0.000000 -0.000000      6.000000
  0.076923  0.076923 -0.000000      6.000000
  0.153846  0.076923 -0.000000     12.000000
  0.230769  0.076923 -0.000000     12.000000
  0.307692  0.076923 -0.000000     12.000000
  0.384615  0.076923 -0.000000     12.000000
  0.461538  0.076923 -0.000000      6.000000
  0.153846  0.153846  0.000000      6.000000
  0.230769  0.153846 -0.000000     12.000000
  0.307692  0.153846 -0.000000     12.000000
  0.384615  0.153846 -0.000000     12.000000
  0.230769  0.230769 -0.000000      6.000000
  0.307692  0.230769 -0.000000     12.000000
  0.384615  0.230769 -0.000000      6.000000
  0.307692  0.307692 -0.000000      6.000000
 
 Following cartesian coordinates:
            Coordinates               Weight
  0.000000  0.000000  0.000000      1.000000
  0.029870  0.000000  0.000000      6.000000
  0.059739  0.000000  0.000000      6.000000
  0.089609  0.000000  0.000000      6.000000
  0.119478  0.000000  0.000000      6.000000
  0.149348  0.000000  0.000000      6.000000
  0.179217  0.000000  0.000000      6.000000
  0.044804  0.025868  0.000000      6.000000
  0.074674  0.025868  0.000000     12.000000
  0.104543  0.025868  0.000000     12.000000
  0.134413  0.025868  0.000000     12.000000
  0.164282  0.025868  0.000000     12.000000
  0.194152  0.025868  0.000000      6.000000
  0.089609  0.051736  0.000000      6.000000
  0.119478  0.051736  0.000000     12.000000
  0.149348  0.051736  0.000000     12.000000
  0.179217  0.051736  0.000000     12.000000
  0.134413  0.077603  0.000000      6.000000
  0.164282  0.077603  0.000000     12.000000
  0.194152  0.077603  0.000000      6.000000
  0.179217  0.103471  0.000000      6.000000
 


--------------------------------------------------------------------------------------------------------




 Dimension of arrays:
   k-points           NKPTS =     21   k-points in BZ     NKDIM =     21   number of bands    NBANDS=     68
   number of dos      NEDOS =    301   number of ions     NIONS =     28
   non local maximal  LDIM  =      5   non local SUM 2l+1 LMDIM =     13
   total plane-waves  NPLWV = 184320
   max r-space proj   IRMAX =      1   max aug-charges    IRDMAX= 196665
   dimension x,y,z NGX =    24 NGY =   24 NGZ =  320
   dimension x,y,z NGXF=    48 NGYF=   48 NGZF=  640
   support grid    NGXF=    96 NGYF=   96 NGZF= 1280
   ions per type =              11  10   7
 NGX,Y,Z   is equivalent  to a cutoff of  13.42, 13.42, 12.78 a.u.
 NGXF,Y,Z  is equivalent  to a cutoff of  26.83, 26.83, 25.56 a.u.


 I would recommend the setting:
   dimension x,y,z NGX =    22 NGY =   22 NGZ =  310
 SYSTEM =  unknown system                          
 POSCAR =  Layer                                   

 Startparameter for this run:
   NWRITE =      2    write-flag & timer
   PREC   = accura    normal or accurate (medium, high low for compatibility)
   ISTART =      0    job   : 0-new  1-cont  2-samecut
   ICHARG =      2    charge: 1-file 2-atom 10-const
   ISPIN  =      1    spin polarized calculation?
   LNONCOLLINEAR =      F non collinear calculations
   LSORBIT =      F    spin-orbit coupling
   INIWAV =      1    electr: 0-lowe 1-rand  2-diag
   LASPH  =      F    aspherical Exc in radial PAW
   METAGGA=      F    non-selfconsistent MetaGGA calc.

 Electronic Relaxation 1
   ENCUT  =  520.0 eV  38.22 Ry    6.18 a.u.   5.53  5.53 77.40*2*pi/ulx,y,z
   ENINI  =  520.0     initial cutoff
   ENAUG  =  605.4 eV  augmentation charge cutoff
   NELM   =    100;   NELMIN=  6; NELMDL=  0     # of ELM steps 
   EDIFF  = 0.1E-04   stopping-criterion for ELM
   LREAL  =      F    real-space projection
   NLSPLINE    = F    spline interpolate recip. space projectors
   LCOMPAT=      F    compatible to vasp.4.4
   GGA_COMPAT  = T    GGA compatible to vasp.4.4-vasp.4.6
   LMAXPAW     = -100 max onsite density
   LMAXMIX     =    2 max onsite mixed and CHGCAR
   VOSKOWN=      0    Vosko Wilk Nusair interpolation
   ROPT   =    0.00000   0.00000   0.00000
 Ionic relaxation
   EDIFFG = -.2E-01   stopping-criterion for IOM
   NSW    =    500    number of steps for IOM
   NBLOCK =      1;   KBLOCK =    500    inner block; outer block 
   IBRION =      2    ionic relax: 0-MD 1-quasi-New 2-CG
   NFREE  =      1    steps in history (QN), initial steepest desc. (CG)
   ISIF   =      2    stress and relaxation
   IWAVPR =     11    prediction:  0-non 1-charg 2-wave 3-comb
   ISYM   =      2    0-nonsym 1-usesym 2-fastsym
   LCORR  =      T    Harris-Foulkes like correction to forces

   POTIM  = 0.5000    time-step for ionic-motion
   TEIN   =    0.0    initial temperature
   TEBEG  =    0.0;   TEEND  =   0.0 temperature during run
   SMASS  =  -3.00    Nose mass-parameter (am)
   estimated Nose-frequenzy (Omega)   =  0.10E-29 period in steps =****** mass=  -0.202E-27a.u.
   SCALEE = 1.0000    scale energy and forces
   NPACO  =    256;   APACO  = 16.0  distance and # of slots for P.C.
   PSTRESS=    0.0 pullay stress

  Mass of Ions in am
   POMASS =  16.00 24.30 26.98
  Ionic Valenz
   ZVAL   =   6.00  2.00  3.00
  Atomic Wigner-Seitz radii
   RWIGS  =  -1.00 -1.00 -1.00
  virtual crystal weights 
   VCA    =   1.00  1.00  1.00
   NELECT =     107.0000    total number of electrons
   NUPDOWN=      -1.0000    fix difference up-down

 DOS related values:
   EMIN   =  10.00;   EMAX   =-10.00  energy-range for DOS
   EFERMI =   0.00
   ISMEAR =     0;   SIGMA  =   0.05  broadening in eV -4-tet -1-fermi 0-gaus

 Electronic relaxation 2 (details)
   IALGO  =     38    algorithm
   LDIAG  =      T    sub-space diagonalisation (order eigenvalues)
   LSUBROT=      F    optimize rotation matrix (better conditioning)
   TURBO    =      0    0=normal 1=particle mesh
   IRESTART =      0    0=no restart 2=restart with 2 vectors
   NREBOOT  =      0    no. of reboots
   NMIN     =      0    reboot dimension
   EREF     =   0.00    reference energy to select bands
   IMIX   =      4    mixing-type and parameters
     AMIX     =   0.40;   BMIX     =  1.00
     AMIX_MAG =   1.60;   BMIX_MAG =  1.00
     AMIN     =   0.01
     WC   =   100.;   INIMIX=   1;  MIXPRE=   1;  MAXMIX= -45

 Intra band minimization:
   WEIMIN = 0.0010     energy-eigenvalue tresh-hold
   EBREAK =  0.37E-07  absolut break condition
   DEPER  =   0.30     relativ break condition  

   TIME   =   0.40     timestep for ELM

  volume/ion in A,a.u.               =      11.39        76.83
  Fermi-wavevector in a.u.,A,eV,Ry     =   1.137714  2.149968 17.611300  1.294394
  Thomas-Fermi vector in A             =   2.274419
 
 Write flags
   LWAVE  =      F    write WAVECAR
   LCHARG =      T    write CHGCAR
   LVTOT  =      F    write LOCPOT, total local potential
   LVHAR  =      F    write LOCPOT, Hartree potential only
   LELF   =      F    write electronic localiz. function (ELF)
   LORBIT =      0    0 simple, 1 ext, 2 COOP (PROOUT)


 Dipole corrections
   LMONO  =      F    monopole corrections only (constant potential shift)
   LDIPOL =      F    correct potential (dipole corrections)
   IDIPOL =      0    1-x, 2-y, 3-z, 4-all directions 
   EPSILON=  1.0000000 bulk dielectric constant

 Exchange correlation treatment:
   GGA     =    --    GGA type
   LEXCH   =     8    internal setting for exchange type
   VOSKOWN=      0    Vosko Wilk Nusair interpolation
   LHFCALC =     F    Hartree Fock is set to
   LHFONE  =     F    Hartree Fock one center treatment
   AEXX    =    0.0000 exact exchange contribution

 Linear response parameters
   LEPSILON=     F    determine dielectric tensor
   LRPA    =     F    only Hartree local field effects (RPA)
   LNABLA  =     F    use nabla operator in PAW spheres
   LVEL    =     F    velocity operator in full k-point grid
   LINTERFAST=   F  fast interpolation
   KINTER  =     0    interpolate to denser k-point grid
   CSHIFT  =0.1000    complex shift for real part using Kramers Kronig
   OMEGAMAX=  -1.0    maximum frequency
   DEG_THRESHOLD= 0.2000000E-02 threshold for treating states as degnerate
   RTIME   =    0.100 relaxation time in fs

 Orbital magnetization related:
   ORBITALMAG=     F  switch on orbital magnetization
   LCHIMAG   =     F  perturbation theory with respect to B field
   DQ        =  0.001000  dq finite difference perturbation B field



--------------------------------------------------------------------------------------------------------


 conjugate gradient relaxation of ions
   using selective dynamics as specified on POSCAR
 charge density and potential will be updated during run
 non-spin polarized calculation
 Variant of blocked Davidson
 Davidson routine will perform the subspace rotation
 perform sub-space diagonalisation
    after iterative eigenvector-optimisation
 modified Broyden-mixing scheme, WC =      100.0
 initial mixing is a Kerker type mixing with AMIX =  0.4000 and BMIX =      1.0000
 Hartree-type preconditioning will be used
 using additional bands           14
 reciprocal scheme for non local part
 use partial core corrections
 calculate Harris-corrections to forces 
   (improved forces if not selfconsistent)
 use gradient corrections 
 use of overlap-Matrix (Vanderbilt PP)
 Gauss-broadening in eV      SIGMA  =   0.05


--------------------------------------------------------------------------------------------------------


  energy-cutoff  :      520.00
  volume of cell :      318.79
      direct lattice vectors                 reciprocal lattice vectors
     2.575303410 -1.486851677  0.000000000     0.388303761  0.000000000  0.000000000
     0.000000000  2.973703354  0.000000000     0.194151881  0.336281021  0.000000000
    -0.000000000  0.000000000 41.627704448     0.000000000  0.000000000  0.024022463

  length of vectors
     2.973704014  2.973703354 41.627704448     0.388303761  0.388303847  0.024022463


 
 k-points in units of 2pi/SCALE and weight: K-Spacing Value to Generate K-Mesh: 0.02
   0.00000000  0.00000000  0.00000000       0.006
   0.02986952  0.00000000  0.00000000       0.036
   0.05973904  0.00000000  0.00000000       0.036
   0.08960856  0.00000000  0.00000000       0.036
   0.11947808  0.00000000  0.00000000       0.036
   0.14934760  0.00000000  0.00000000       0.036
   0.17921712  0.00000000  0.00000000       0.036
   0.04480428  0.02586777  0.00000000       0.036
   0.07467380  0.02586777  0.00000000       0.071
   0.10454332  0.02586777  0.00000000       0.071
   0.13441284  0.02586777  0.00000000       0.071
   0.16428236  0.02586777  0.00000000       0.071
   0.19415188  0.02586777  0.00000000       0.036
   0.08960856  0.05173554  0.00000000       0.036
   0.11947808  0.05173554  0.00000000       0.071
   0.14934760  0.05173554  0.00000000       0.071
   0.17921712  0.05173554  0.00000000       0.071
   0.13441284  0.07760331  0.00000000       0.036
   0.16428236  0.07760331  0.00000000       0.071
   0.19415188  0.07760331  0.00000000       0.036
   0.17921712  0.10347108  0.00000000       0.036
 
 k-points in reciprocal lattice and weights: K-Spacing Value to Generate K-Mesh: 0.02
   0.00000000  0.00000000  0.00000000       0.006
   0.07692308  0.00000000 -0.00000000       0.036
   0.15384615  0.00000000 -0.00000000       0.036
   0.23076923  0.00000000 -0.00000000       0.036
   0.30769231  0.00000000 -0.00000000       0.036
   0.38461538  0.00000000  0.00000000       0.036
   0.46153846  0.00000000 -0.00000000       0.036
   0.07692308  0.07692308 -0.00000000       0.036
   0.15384615  0.07692308 -0.00000000       0.071
   0.23076923  0.07692308 -0.00000000       0.071
   0.30769231  0.07692308 -0.00000000       0.071
   0.38461538  0.07692308 -0.00000000       0.071
   0.46153846  0.07692308 -0.00000000       0.036
   0.15384615  0.15384615  0.00000000       0.036
   0.23076923  0.15384615 -0.00000000       0.071
   0.30769231  0.15384615 -0.00000000       0.071
   0.38461538  0.15384615 -0.00000000       0.071
   0.23076923  0.23076923 -0.00000000       0.036
   0.30769231  0.23076923 -0.00000000       0.071
   0.38461538  0.23076923 -0.00000000       0.036
   0.30769231  0.30769231 -0.00000000       0.036
 
 position of ions in fractional coordinates (direct lattice) 
   0.33333300  0.66666700  0.22239244
   0.00000000  0.00000000  0.34398692
   0.33333300  0.66666700  0.40418352
   0.00000000  0.00000000  0.52452532
   0.33333300  0.66666700  0.58469412
   0.00000000  0.00000000  0.70515397
   0.33333300  0.66666700  0.76546482
   0.66666700  0.33333300  0.28367282
   0.66666700  0.33333300  0.46436834
   0.66666700  0.33333300  0.64491330
   0.66666700  0.33333300  0.82668838
   0.00000000  0.00000000  0.25353256
   0.00000000  0.00000000  0.43427009
   0.00000000  0.00000000  0.61480543
   0.00000000  0.00000000  0.79550804
   0.66666700  0.33333300  0.37405988
   0.66666700  0.33333300  0.55461738
   0.66666700  0.33333300  0.73527535
   0.33333300  0.66666700  0.31381183
   0.33333300  0.66666700  0.49444717
   0.33333300  0.66666700  0.67503904
   0.00000000  0.00000000  0.02454249
   0.00000000  0.00000000  0.18668971
   0.66666700  0.33333300  0.13416012
   0.33333300  0.66666700  0.07923475
   0.00000000  0.00000000  0.86235685
   0.66666700  0.33333300  0.96983342
   0.33333300  0.66666700  0.91492295
 
 position of ions in cartesian coordinates  (Angst):
   0.85843361  1.48685316  9.25768660
  -0.00000000  0.00000000 14.31938579
   0.85843361  1.48685316 16.82523217
  -0.00000000  0.00000000 21.83478485
   0.85843361  1.48685316 24.33947396
  -0.00000000  0.00000000 29.35394125
   0.85843361  1.48685316 31.86454332
   1.71686980 -0.00000149 11.80864831
   1.71686980 -0.00000149 19.33058811
   1.71686980 -0.00000149 26.84626011
   1.71686980 -0.00000149 34.41313954
  -0.00000000  0.00000000 10.55397835
  -0.00000000  0.00000000 18.07766694
  -0.00000000  0.00000000 25.59293888
  -0.00000000  0.00000000 33.11517364
   1.71686980 -0.00000149 15.57125414
   1.71686980 -0.00000149 23.08744826
   1.71686980 -0.00000149 30.60782513
   0.85843361  1.48685316 13.06326607
   0.85843361  1.48685316 20.58270064
   0.85843361  1.48685316 28.10032559
  -0.00000000  0.00000000  1.02164746
  -0.00000000  0.00000000  7.77146395
   1.71686980 -0.00000149  5.58477775
   0.85843361  1.48685316  3.29836059
  -0.00000000  0.00000000 35.89793596
   1.71686980 -0.00000149 40.37193909
   0.85843361  1.48685316 38.08614232
 


--------------------------------------------------------------------------------------------------------


 k-point  1 :   0.0000 0.0000 0.0000  plane waves:    8735
 k-point  2 :   0.0769 0.0000-0.0000  plane waves:    8713
 k-point  3 :   0.1538 0.0000-0.0000  plane waves:    8697
 k-point  4 :   0.2308 0.0000-0.0000  plane waves:    8622
 k-point  5 :   0.3077 0.0000-0.0000  plane waves:    8570
 k-point  6 :   0.3846 0.0000 0.0000  plane waves:    8556
 k-point  7 :   0.4615 0.0000-0.0000  plane waves:    8498
 k-point  8 :   0.0769 0.0769-0.0000  plane waves:    8705
 k-point  9 :   0.1538 0.0769-0.0000  plane waves:    8643
 k-point 10 :   0.2308 0.0769-0.0000  plane waves:    8607
 k-point 11 :   0.3077 0.0769-0.0000  plane waves:    8580
 k-point 12 :   0.3846 0.0769-0.0000  plane waves:    8514
 k-point 13 :   0.4615 0.0769-0.0000  plane waves:    8494
 k-point 14 :   0.1538 0.1538 0.0000  plane waves:    8611
 k-point 15 :   0.2308 0.1538-0.0000  plane waves:    8591
 k-point 16 :   0.3077 0.1538-0.0000  plane waves:    8561
 k-point 17 :   0.3846 0.1538-0.0000  plane waves:    8529
 k-point 18 :   0.2308 0.2308-0.0000  plane waves:    8575
 k-point 19 :   0.3077 0.2308-0.0000  plane waves:    8564
 k-point 20 :   0.3846 0.2308-0.0000  plane waves:    8558
 k-point 21 :   0.3077 0.3077-0.0000  plane waves:    8576

 maximum and minimum number of plane-waves per node :      2199     2110

 maximum number of plane-waves:      8735
 maximum index in each direction: 
   IXMAX=    5   IYMAX=    5   IZMAX=   77
   IXMIN=   -5   IYMIN=   -5   IZMIN=  -77

 NGX is ok and might be reduce to  22
 NGY is ok and might be reduce to  22
 NGZ is ok and might be reduce to 310

 parallel 3D FFT for wavefunctions:
    minimum data exchange during FFTs selected (reduces bandwidth)
 parallel 3D FFT for charge:
    minimum data exchange during FFTs selected (reduces bandwidth)


 total amount of memory used by VASP on root node   148699. kBytes
========================================================================

   base      :      30000. kBytes
   nonl-proj :      15400. kBytes
   fftplans  :      55170. kBytes
   grid      :      22118. kBytes
   one-center:         56. kBytes
   wavefun   :      25955. kBytes
 
     INWAV:  cpu time    0.00: real time    0.00
 Broyden mixing: mesh for mixing (old mesh)
   NGX = 11   NGY = 11   NGZ =155
  (NGX  = 48   NGY  = 48   NGZ  =640)
  gives a total of  18755 points

 initial charge density was supplied:
 charge density of overlapping atoms calculated
 number of electron     107.0000000 magnetization 
 keeping initial charge density in first step


--------------------------------------------------------------------------------------------------------


 Maximum index for augmentation-charges        23616 (set IRDMAX)


--------------------------------------------------------------------------------------------------------


 First call to EWALD:  gamma=   0.259
 Maximum number of real-space cells 6x 6x 1
 Maximum number of reciprocal cells 1x 1x14

 FEWALD executed in parallel
    FEWALD:  cpu time    0.00: real time    0.00


----------------------------------------- Iteration    1(   1)  ---------------------------------------


    POTLOK:  cpu time    0.11: real time    0.11
    SETDIJ:  cpu time    0.12: real time    0.12
     EDDAV:  cpu time    4.46: real time    4.50
       DOS:  cpu time    0.00: real time    0.00
    --------------------------------------------
      LOOP:  cpu time    4.70: real time    4.74

 eigenvalue-minimisations  :  2856
 total energy-change (2. order) : 0.5533341E+03  (-0.4907149E+04)
 number of electron     107.0000000 magnetization 
 augmentation part      107.0000000 magnetization 

 Free energy of the ion-electron system (eV)
  ---------------------------------------------------
  alpha Z        PSCENC =       158.40289987
  Ewald energy   TEWEN  =      7901.60522329
  -Hartree energ DENC   =    -13614.52878604
  -exchange      EXHF   =         0.00000000
  -V(xc)+E(xc)   XCENC  =      -361.65657430
  PAW double counting   =      4928.51229836    -4205.98855578
  entropy T*S    EENTRO =        -0.00578897
  eigenvalues    EBANDS =       385.91766148
  atomic energy  EATOM  =      5361.07568887
  ---------------------------------------------------
  free energy    TOTEN  =       553.33406677 eV

  energy without entropy =      553.33985574  energy(sigma->0) =      553.33696126


--------------------------------------------------------------------------------------------------------




----------------------------------------- Iteration    1(   2)  ---------------------------------------


     EDDAV:  cpu time    5.39: real time    5.40
       DOS:  cpu time    0.00: real time    0.00
    --------------------------------------------
      LOOP:  cpu time    5.39: real time    5.40

 eigenvalue-minimisations  :  3668
 total energy-change (2. order) :-0.6661637E+03  (-0.6368206E+03)
 number of electron     107.0000000 magnetization 
 augmentation part      107.0000000 magnetization 

 Free energy of the ion-electron system (eV)
  ---------------------------------------------------
  alpha Z        PSCENC =       158.40289987
  Ewald energy   TEWEN  =      7901.60522329
  -Hartree energ DENC   =    -13614.52878604
  -exchange      EXHF   =         0.00000000
  -V(xc)+E(xc)   XCENC  =      -361.65657430
  PAW double counting   =      4928.51229836    -4205.98855578
  entropy T*S    EENTRO =        -0.00595044
  eigenvalues    EBANDS =      -280.24588551
  atomic energy  EATOM  =      5361.07568887
  ---------------------------------------------------
  free energy    TOTEN  =      -112.82964168 eV

  energy without entropy =     -112.82369124  energy(sigma->0) =     -112.82666646


--------------------------------------------------------------------------------------------------------




----------------------------------------- Iteration    1(   3)  ---------------------------------------


     EDDAV:  cpu time    5.01: real time    5.02
       DOS:  cpu time    0.00: real time    0.00
    --------------------------------------------
      LOOP:  cpu time    5.01: real time    5.02

 eigenvalue-minimisations  :  3336
 total energy-change (2. order) :-0.5589188E+02  (-0.5558268E+02)
 number of electron     107.0000000 magnetization 
 augmentation part      107.0000000 magnetization 

 Free energy of the ion-electron system (eV)
  ---------------------------------------------------
  alpha Z        PSCENC =       158.40289987
  Ewald energy   TEWEN  =      7901.60522329
  -Hartree energ DENC   =    -13614.52878604
  -exchange      EXHF   =         0.00000000
  -V(xc)+E(xc)   XCENC  =      -361.65657430
  PAW double counting   =      4928.51229836    -4205.98855578
  entropy T*S    EENTRO =        -0.00794748
  eigenvalues    EBANDS =      -336.13576471
  atomic energy  EATOM  =      5361.07568887
  ---------------------------------------------------
  free energy    TOTEN  =      -168.72151791 eV

  energy without entropy =     -168.71357044  energy(sigma->0) =     -168.71754418


--------------------------------------------------------------------------------------------------------




----------------------------------------- Iteration    1(   4)  ---------------------------------------


     EDDAV:  cpu time    4.97: real time    4.98
       DOS:  cpu time    0.00: real time    0.00
    --------------------------------------------
      LOOP:  cpu time    4.97: real time    4.98

 eigenvalue-minimisations  :  3320
 total energy-change (2. order) :-0.7015506E+00  (-0.7002460E+00)
 number of electron     107.0000000 magnetization 
 augmentation part      107.0000000 magnetization 

 Free energy of the ion-electron system (eV)
  ---------------------------------------------------
  alpha Z        PSCENC =       158.40289987
  Ewald energy   TEWEN  =      7901.60522329
  -Hartree energ DENC   =    -13614.52878604
  -exchange      EXHF   =         0.00000000
  -V(xc)+E(xc)   XCENC  =      -361.65657430
  PAW double counting   =      4928.51229836    -4205.98855578
  entropy T*S    EENTRO =        -0.00798753
  eigenvalues    EBANDS =      -336.83727527
  atomic energy  EATOM  =      5361.07568887
  ---------------------------------------------------
  free energy    TOTEN  =      -169.42306853 eV

  energy without entropy =     -169.41508100  energy(sigma->0) =     -169.41907477


--------------------------------------------------------------------------------------------------------




----------------------------------------- Iteration    1(   5)  ---------------------------------------


     EDDAV:  cpu time    5.10: real time    5.11
       DOS:  cpu time    0.00: real time    0.00
    CHARGE:  cpu time    0.41: real time    0.41
    MIXING:  cpu time    0.00: real time    0.00
    --------------------------------------------
      LOOP:  cpu time    5.51: real time    5.52

 eigenvalue-minimisations  :  3464
 total energy-change (2. order) :-0.1041666E-01  (-0.1041075E-01)
 number of electron     107.0000001 magnetization 
 augmentation part        8.5059060 magnetization 

 Broyden mixing:
  rms(total) = 0.23864E+01    rms(broyden)= 0.23859E+01
  rms(prec ) = 0.24436E+01
  weight for this iteration     100.00

 Free energy of the ion-electron system (eV)
  ---------------------------------------------------
  alpha Z        PSCENC =       158.40289987
  Ewald energy   TEWEN  =      7901.60522329
  -Hartree energ DENC   =    -13614.52878604
  -exchange      EXHF   =         0.00000000
  -V(xc)+E(xc)   XCENC  =      -361.65657430
  PAW double counting   =      4928.51229836    -4205.98855578
  entropy T*S    EENTRO =        -0.00797902
  eigenvalues    EBANDS =      -336.84770043
  atomic energy  EATOM  =      5361.07568887
  ---------------------------------------------------
  free energy    TOTEN  =      -169.43348519 eV

  energy without entropy =     -169.42550617  energy(sigma->0) =     -169.42949568


--------------------------------------------------------------------------------------------------------




----------------------------------------- Iteration    1(   6)  ---------------------------------------


    POTLOK:  cpu time    0.10: real time    0.10
    SETDIJ:  cpu time    0.11: real time    0.11
     EDDAV:  cpu time    4.94: real time    4.94
       DOS:  cpu time    0.00: real time    0.00
    CHARGE:  cpu time    0.39: real time    0.40
    MIXING:  cpu time    0.00: real time    0.00
    --------------------------------------------
      LOOP:  cpu time    5.55: real time    5.55

 eigenvalue-minimisations  :  3312
 total energy-change (2. order) : 0.1660688E+02  (-0.9527554E+01)
 number of electron     107.0000002 magnetization 
 augmentation part        6.8915067 magnetization 

 Broyden mixing:
  rms(total) = 0.82053E+00    rms(broyden)= 0.81958E+00
  rms(prec ) = 0.83127E+00
  weight for this iteration     100.00

 eigenvalues of (default mixing * dielectric matrix)
  average eigenvalue GAMMA=   0.8398
  0.8398

 Free energy of the ion-electron system (eV)
  ---------------------------------------------------
  alpha Z        PSCENC =       158.40289987
  Ewald energy   TEWEN  =      7901.60522329
  -Hartree energ DENC   =    -13817.71934779
  -exchange      EXHF   =         0.00000000
  -V(xc)+E(xc)   XCENC  =      -347.26219805
  PAW double counting   =      5866.71860752    -5147.92537854
  entropy T*S    EENTRO =        -0.00714265
  eigenvalues    EBANDS =      -127.71496261
  atomic energy  EATOM  =      5361.07568887
  ---------------------------------------------------
  free energy    TOTEN  =      -152.82661008 eV

  energy without entropy =     -152.81946744  energy(sigma->0) =     -152.82303876


--------------------------------------------------------------------------------------------------------




----------------------------------------- Iteration    1(   7)  ---------------------------------------


    POTLOK:  cpu time    0.10: real time    0.10
    SETDIJ:  cpu time    0.11: real time    0.11
     EDDAV:  cpu time    4.63: real time    4.64
       DOS:  cpu time    0.00: real time    0.00
    CHARGE:  cpu time    0.39: real time    0.39
    MIXING:  cpu time    0.00: real time    0.00
    --------------------------------------------
      LOOP:  cpu time    5.23: real time    5.24

 eigenvalue-minimisations  :  3144
 total energy-change (2. order) : 0.1831613E+00  (-0.2046747E+00)
 number of electron     107.0000002 magnetization 
 augmentation part        6.9382891 magnetization 

 Broyden mixing:
  rms(total) = 0.49405E+00    rms(broyden)= 0.49403E+00
  rms(prec ) = 0.50026E+00
  weight for this iteration     100.00

 eigenvalues of (default mixing * dielectric matrix)
  average eigenvalue GAMMA=   1.5547
  0.9798  2.1295

 Free energy of the ion-electron system (eV)
  ---------------------------------------------------
  alpha Z        PSCENC =       158.40289987
  Ewald energy   TEWEN  =      7901.60522329
  -Hartree energ DENC   =    -13811.69711998
  -exchange      EXHF   =         0.00000000
  -V(xc)+E(xc)   XCENC  =      -346.94802574
  PAW double counting   =      6229.29088025    -5509.99813560
  entropy T*S    EENTRO =        -0.00663655
  eigenvalues    EBANDS =      -134.36822318
  atomic energy  EATOM  =      5361.07568887
  ---------------------------------------------------
  free energy    TOTEN  =      -152.64344877 eV

  energy without entropy =     -152.63681222  energy(sigma->0) =     -152.64013049


--------------------------------------------------------------------------------------------------------




----------------------------------------- Iteration    1(   8)  ---------------------------------------


    POTLOK:  cpu time    0.10: real time    0.10
    SETDIJ:  cpu time    0.11: real time    0.11
     EDDAV:  cpu time    4.83: real time    4.84
       DOS:  cpu time    0.00: real time    0.00
    CHARGE:  cpu time    0.40: real time    0.40
    MIXING:  cpu time    0.00: real time    0.00
    --------------------------------------------
      LOOP:  cpu time    5.44: real time    5.45

 eigenvalue-minimisations  :  3316
 total energy-change (2. order) : 0.1074617E+00  (-0.6852457E-01)
 number of electron     107.0000002 magnetization 
 augmentation part        7.0004106 magnetization 

 Broyden mixing:
  rms(total) = 0.11147E+00    rms(broyden)= 0.11141E+00
  rms(prec ) = 0.11735E+00
  weight for this iteration     100.00

 eigenvalues of (default mixing * dielectric matrix)
  average eigenvalue GAMMA=   1.4887
  2.3638  1.0511  1.0511

 Free energy of the ion-electron system (eV)
  ---------------------------------------------------
  alpha Z        PSCENC =       158.40289987
  Ewald energy   TEWEN  =      7901.60522329
  -Hartree energ DENC   =    -13814.57064708
  -exchange      EXHF   =         0.00000000
  -V(xc)+E(xc)   XCENC  =      -345.47634529
  PAW double counting   =      6780.80322711    -6061.13897201
  entropy T*S    EENTRO =        -0.00658555
  eigenvalues    EBANDS =      -133.23047627
  atomic energy  EATOM  =      5361.07568887
  ---------------------------------------------------
  free energy    TOTEN  =      -152.53598705 eV

  energy without entropy =     -152.52940151  energy(sigma->0) =     -152.53269428


--------------------------------------------------------------------------------------------------------




----------------------------------------- Iteration    1(   9)  ---------------------------------------


    POTLOK:  cpu time    0.10: real time    0.10
    SETDIJ:  cpu time    0.12: real time    0.12
     EDDAV:  cpu time    4.88: real time    4.89
       DOS:  cpu time    0.00: real time    0.00
    CHARGE:  cpu time    0.39: real time    0.39
    MIXING:  cpu time    0.00: real time    0.00
    --------------------------------------------
      LOOP:  cpu time    5.50: real time    5.50

 eigenvalue-minimisations  :  3308
 total energy-change (2. order) : 0.2301985E-01  (-0.1559317E-01)
 number of electron     107.0000002 magnetization 
 augmentation part        6.9621704 magnetization 

 Broyden mixing:
  rms(total) = 0.45065E-01    rms(broyden)= 0.45051E-01
  rms(prec ) = 0.48368E-01
  weight for this iteration     100.00

 eigenvalues of (default mixing * dielectric matrix)
  average eigenvalue GAMMA=   1.4327
  2.4569  0.9076  0.9076  1.4587

 Free energy of the ion-electron system (eV)
  ---------------------------------------------------
  alpha Z        PSCENC =       158.40289987
  Ewald energy   TEWEN  =      7901.60522329
  -Hartree energ DENC   =    -13820.45662091
  -exchange      EXHF   =         0.00000000
  -V(xc)+E(xc)   XCENC  =      -344.84127084
  PAW double counting   =      6815.29251565    -6095.71970228
  entropy T*S    EENTRO =        -0.00714954
  eigenvalues    EBANDS =      -127.86455132
  atomic energy  EATOM  =      5361.07568887
  ---------------------------------------------------
  free energy    TOTEN  =      -152.51296720 eV

  energy without entropy =     -152.50581766  energy(sigma->0) =     -152.50939243


--------------------------------------------------------------------------------------------------------




----------------------------------------- Iteration    1(  10)  ---------------------------------------


    POTLOK:  cpu time    0.10: real time    0.10
    SETDIJ:  cpu time    0.11: real time    0.11
     EDDAV:  cpu time    4.76: real time    4.76
       DOS:  cpu time    0.00: real time    0.00
    CHARGE:  cpu time    0.40: real time    0.40
    MIXING:  cpu time    0.00: real time    0.00
    --------------------------------------------
      LOOP:  cpu time    5.37: real time    5.37

 eigenvalue-minimisations  :  3204
 total energy-change (2. order) :-0.7409754E-03  (-0.5177260E-02)
 number of electron     107.0000002 magnetization 
 augmentation part        6.9518303 magnetization 

 Broyden mixing:
  rms(total) = 0.32534E-01    rms(broyden)= 0.32519E-01
  rms(prec ) = 0.37780E-01
  weight for this iteration     100.00

 eigenvalues of (default mixing * dielectric matrix)
  average eigenvalue GAMMA=   1.3264
  2.4971  1.4166  0.9927  0.8629  0.8629

 Free energy of the ion-electron system (eV)
  ---------------------------------------------------
  alpha Z        PSCENC =       158.40289987
  Ewald energy   TEWEN  =      7901.60522329
  -Hartree energ DENC   =    -13820.89110632
  -exchange      EXHF   =         0.00000000
  -V(xc)+E(xc)   XCENC  =      -344.66932077
  PAW double counting   =      6797.01649048    -6077.45836767
  entropy T*S    EENTRO =        -0.00690792
  eigenvalues    EBANDS =      -127.58830802
  atomic energy  EATOM  =      5361.07568887
  ---------------------------------------------------
  free energy    TOTEN  =      -152.51370818 eV

  energy without entropy =     -152.50680026  energy(sigma->0) =     -152.51025422


--------------------------------------------------------------------------------------------------------




----------------------------------------- Iteration    1(  11)  ---------------------------------------


    POTLOK:  cpu time    0.10: real time    0.10
    SETDIJ:  cpu time    0.11: real time    0.11
     EDDAV:  cpu time    4.99: real time    4.99
       DOS:  cpu time    0.00: real time    0.00
    CHARGE:  cpu time    0.39: real time    0.39
    MIXING:  cpu time    0.00: real time    0.00
    --------------------------------------------
      LOOP:  cpu time    5.60: real time    5.60

 eigenvalue-minimisations  :  3468
 total energy-change (2. order) : 0.2138308E-02  (-0.7609555E-03)
 number of electron     107.0000002 magnetization 
 augmentation part        6.9593807 magnetization 

 Broyden mixing:
  rms(total) = 0.18707E-01    rms(broyden)= 0.18706E-01
  rms(prec ) = 0.22835E-01
  weight for this iteration     100.00

 eigenvalues of (default mixing * dielectric matrix)
  average eigenvalue GAMMA=   1.4146
  2.5975  2.0863  1.0188  1.0188  1.0552  0.7112

 Free energy of the ion-electron system (eV)
  ---------------------------------------------------
  alpha Z        PSCENC =       158.40289987
  Ewald energy   TEWEN  =      7901.60522329
  -Hartree energ DENC   =    -13819.87190594
  -exchange      EXHF   =         0.00000000
  -V(xc)+E(xc)   XCENC  =      -344.69485418
  PAW double counting   =      6786.92026506    -6067.35185248
  entropy T*S    EENTRO =        -0.00706775
  eigenvalues    EBANDS =      -128.58996661
  atomic energy  EATOM  =      5361.07568887
  ---------------------------------------------------
  free energy    TOTEN  =      -152.51156987 eV

  energy without entropy =     -152.50450212  energy(sigma->0) =     -152.50803600


--------------------------------------------------------------------------------------------------------




----------------------------------------- Iteration    1(  12)  ---------------------------------------


    POTLOK:  cpu time    0.10: real time    0.10
    SETDIJ:  cpu time    0.12: real time    0.12
     EDDAV:  cpu time    4.94: real time    4.95
       DOS:  cpu time    0.00: real time    0.00
    CHARGE:  cpu time    0.39: real time    0.39
    MIXING:  cpu time    0.00: real time    0.00
    --------------------------------------------
      LOOP:  cpu time    5.57: real time    5.57

 eigenvalue-minimisations  :  3368
 total energy-change (2. order) : 0.1522568E-02  (-0.6443796E-03)
 number of electron     107.0000002 magnetization 
 augmentation part        6.9589916 magnetization 

 Broyden mixing:
  rms(total) = 0.12269E-01    rms(broyden)= 0.12265E-01
  rms(prec ) = 0.16448E-01
  weight for this iteration     100.00

 eigenvalues of (default mixing * dielectric matrix)
  average eigenvalue GAMMA=   1.4056
  2.8095  2.5011  0.9706  0.9706  0.9738  0.9738  0.6399

 Free energy of the ion-electron system (eV)
  ---------------------------------------------------
  alpha Z        PSCENC =       158.40289987
  Ewald energy   TEWEN  =      7901.60522329
  -Hartree energ DENC   =    -13819.15118721
  -exchange      EXHF   =         0.00000000
  -V(xc)+E(xc)   XCENC  =      -344.63262650
  PAW double counting   =      6757.72678244    -6038.16899682
  entropy T*S    EENTRO =        -0.00706145
  eigenvalues    EBANDS =      -129.36076980
  atomic energy  EATOM  =      5361.07568887
  ---------------------------------------------------
  free energy    TOTEN  =      -152.51004730 eV

  energy without entropy =     -152.50298585  energy(sigma->0) =     -152.50651658


--------------------------------------------------------------------------------------------------------




----------------------------------------- Iteration    1(  13)  ---------------------------------------


    POTLOK:  cpu time    0.10: real time    0.10
    SETDIJ:  cpu time    0.11: real time    0.11
     EDDAV:  cpu time    5.93: real time    5.93
       DOS:  cpu time    0.00: real time    0.00
    CHARGE:  cpu time    0.39: real time    0.39
    MIXING:  cpu time    0.00: real time    0.00
    --------------------------------------------
      LOOP:  cpu time    6.53: real time    6.53

 eigenvalue-minimisations  :  4312
 total energy-change (2. order) : 0.1048966E-02  (-0.1395440E-03)
 number of electron     107.0000002 magnetization 
 augmentation part        6.9608910 magnetization 

 Broyden mixing:
  rms(total) = 0.61485E-02    rms(broyden)= 0.61478E-02
  rms(prec ) = 0.11608E-01
  weight for this iteration     100.00

 eigenvalues of (default mixing * dielectric matrix)
  average eigenvalue GAMMA=   1.4062
  2.8976  2.4882  1.1009  1.1009  1.0436  0.9838  0.9838  0.6508

 Free energy of the ion-electron system (eV)
  ---------------------------------------------------
  alpha Z        PSCENC =       158.40289987
  Ewald energy   TEWEN  =      7901.60522329
  -Hartree energ DENC   =    -13818.49340502
  -exchange      EXHF   =         0.00000000
  -V(xc)+E(xc)   XCENC  =      -344.63598723
  PAW double counting   =      6746.86865118    -6027.30841777
  entropy T*S    EENTRO =        -0.00707235
  eigenvalues    EBANDS =      -130.01657918
  atomic energy  EATOM  =      5361.07568887
  ---------------------------------------------------
  free energy    TOTEN  =      -152.50899834 eV

  energy without entropy =     -152.50192599  energy(sigma->0) =     -152.50546216


--------------------------------------------------------------------------------------------------------




----------------------------------------- Iteration    1(  14)  ---------------------------------------


    POTLOK:  cpu time    0.10: real time    0.10
    SETDIJ:  cpu time    0.11: real time    0.11
     EDDAV:  cpu time    5.44: real time    5.44
       DOS:  cpu time    0.00: real time    0.00
    CHARGE:  cpu time    0.39: real time    0.39
    MIXING:  cpu time    0.00: real time    0.00
    --------------------------------------------
      LOOP:  cpu time    6.05: real time    6.05

 eigenvalue-minimisations  :  3992
 total energy-change (2. order) : 0.7911875E-03  (-0.1603447E-03)
 number of electron     107.0000002 magnetization 
 augmentation part        6.9604812 magnetization 

 Broyden mixing:
  rms(total) = 0.44208E-02    rms(broyden)= 0.44180E-02
  rms(prec ) = 0.95833E-02
  weight for this iteration     100.00

 eigenvalues of (default mixing * dielectric matrix)
  average eigenvalue GAMMA=   1.3708
  2.9858  2.5172  1.3988  0.9270  0.9270  1.0335  0.9290  0.9290  0.6899

 Free energy of the ion-electron system (eV)
  ---------------------------------------------------
  alpha Z        PSCENC =       158.40289987
  Ewald energy   TEWEN  =      7901.60522329
  -Hartree energ DENC   =    -13817.91688713
  -exchange      EXHF   =         0.00000000
  -V(xc)+E(xc)   XCENC  =      -344.63373673
  PAW double counting   =      6745.92163789    -6026.36100022
  entropy T*S    EENTRO =        -0.00709583
  eigenvalues    EBANDS =      -130.59493715
  atomic energy  EATOM  =      5361.07568887
  ---------------------------------------------------
  free energy    TOTEN  =      -152.50820715 eV

  energy without entropy =     -152.50111131  energy(sigma->0) =     -152.50465923


--------------------------------------------------------------------------------------------------------




----------------------------------------- Iteration    1(  15)  ---------------------------------------


    POTLOK:  cpu time    0.10: real time    0.10
    SETDIJ:  cpu time    0.10: real time    0.10
     EDDAV:  cpu time    5.25: real time    5.25
       DOS:  cpu time    0.00: real time    0.00
    CHARGE:  cpu time    0.40: real time    0.40
    MIXING:  cpu time    0.01: real time    0.01
    --------------------------------------------
      LOOP:  cpu time    5.86: real time    5.87

 eigenvalue-minimisations  :  3544
 total energy-change (2. order) : 0.1094825E-02  (-0.8183106E-04)
 number of electron     107.0000002 magnetization 
 augmentation part        6.9606213 magnetization 

 Broyden mixing:
  rms(total) = 0.42850E-02    rms(broyden)= 0.42843E-02
  rms(prec ) = 0.80308E-02
  weight for this iteration     100.00

 eigenvalues of (default mixing * dielectric matrix)
  average eigenvalue GAMMA=   1.5593
  3.8690  2.6341  2.4329  1.0115  1.0115  1.0550  1.0550  0.9221  0.9221  0.6797

 Free energy of the ion-electron system (eV)
  ---------------------------------------------------
  alpha Z        PSCENC =       158.40289987
  Ewald energy   TEWEN  =      7901.60522329
  -Hartree energ DENC   =    -13816.94909586
  -exchange      EXHF   =         0.00000000
  -V(xc)+E(xc)   XCENC  =      -344.63024286
  PAW double counting   =      6746.54950343    -6026.98726238
  entropy T*S    EENTRO =        -0.00712916
  eigenvalues    EBANDS =      -131.56669752
  atomic energy  EATOM  =      5361.07568887
  ---------------------------------------------------
  free energy    TOTEN  =      -152.50711232 eV

  energy without entropy =     -152.49998316  energy(sigma->0) =     -152.50354774


--------------------------------------------------------------------------------------------------------




----------------------------------------- Iteration    1(  16)  ---------------------------------------


    POTLOK:  cpu time    0.10: real time    0.10
    SETDIJ:  cpu time    0.11: real time    0.11
     EDDAV:  cpu time    5.45: real time    5.46
       DOS:  cpu time    0.00: real time    0.00
    CHARGE:  cpu time    0.39: real time    0.39
    MIXING:  cpu time    0.00: real time    0.00
    --------------------------------------------
      LOOP:  cpu time    6.06: real time    6.07

 eigenvalue-minimisations  :  3864
 total energy-change (2. order) : 0.9733192E-03  (-0.1083898E-03)
 number of electron     107.0000002 magnetization 
 augmentation part        6.9604841 magnetization 

 Broyden mixing:
  rms(total) = 0.69472E-02    rms(broyden)= 0.69465E-02
  rms(prec ) = 0.86071E-02
  weight for this iteration     100.00

 eigenvalues of (default mixing * dielectric matrix)
  average eigenvalue GAMMA=   1.6528
  4.6847  2.9407  2.4623  1.6072  0.9978  0.9978  0.9650  0.9650  0.9415  0.9415
  0.6778

 Free energy of the ion-electron system (eV)
  ---------------------------------------------------
  alpha Z        PSCENC =       158.40289987
  Ewald energy   TEWEN  =      7901.60522329
  -Hartree energ DENC   =    -13815.71942964
  -exchange      EXHF   =         0.00000000
  -V(xc)+E(xc)   XCENC  =      -344.62471550
  PAW double counting   =      6748.34765295    -6028.78400419
  entropy T*S    EENTRO =        -0.00716208
  eigenvalues    EBANDS =      -132.80229257
  atomic energy  EATOM  =      5361.07568887
  ---------------------------------------------------
  free energy    TOTEN  =      -152.50613900 eV

  energy without entropy =     -152.49897692  energy(sigma->0) =     -152.50255796


--------------------------------------------------------------------------------------------------------




----------------------------------------- Iteration    1(  17)  ---------------------------------------


    POTLOK:  cpu time    0.10: real time    0.10
    SETDIJ:  cpu time    0.11: real time    0.11
     EDDAV:  cpu time    6.13: real time    6.13
       DOS:  cpu time    0.00: real time    0.00
    CHARGE:  cpu time    0.39: real time    0.40
    MIXING:  cpu time    0.01: real time    0.01
    --------------------------------------------
      LOOP:  cpu time    6.74: real time    6.74

 eigenvalue-minimisations  :  4440
 total energy-change (2. order) : 0.5255939E-03  (-0.1515427E-03)
 number of electron     107.0000002 magnetization 
 augmentation part        6.9603625 magnetization 

 Broyden mixing:
  rms(total) = 0.25045E-02    rms(broyden)= 0.25023E-02
  rms(prec ) = 0.46305E-02
  weight for this iteration     100.00

 eigenvalues of (default mixing * dielectric matrix)
  average eigenvalue GAMMA=   1.5917
  5.0535  2.9694  2.4776  1.5601  0.9985  0.9985  0.9383  0.9383  0.9302  0.9302
  0.6530  0.6530

 Free energy of the ion-electron system (eV)
  ---------------------------------------------------
  alpha Z        PSCENC =       158.40289987
  Ewald energy   TEWEN  =      7901.60522329
  -Hartree energ DENC   =    -13814.91767844
  -exchange      EXHF   =         0.00000000
  -V(xc)+E(xc)   XCENC  =      -344.62434300
  PAW double counting   =      6749.37801829    -6029.81424221
  entropy T*S    EENTRO =        -0.00716796
  eigenvalues    EBANDS =      -133.60401213
  atomic energy  EATOM  =      5361.07568887
  ---------------------------------------------------
  free energy    TOTEN  =      -152.50561341 eV

  energy without entropy =     -152.49844545  energy(sigma->0) =     -152.50202943


--------------------------------------------------------------------------------------------------------




----------------------------------------- Iteration    1(  18)  ---------------------------------------


    POTLOK:  cpu time    0.10: real time    0.10
    SETDIJ:  cpu time    0.11: real time    0.11
     EDDAV:  cpu time    4.99: real time    5.00
       DOS:  cpu time    0.00: real time    0.00
    CHARGE:  cpu time    0.39: real time    0.39
    MIXING:  cpu time    0.01: real time    0.01
    --------------------------------------------
      LOOP:  cpu time    5.60: real time    5.61

 eigenvalue-minimisations  :  3432
 total energy-change (2. order) : 0.1376517E-03  (-0.1280143E-03)
 number of electron     107.0000002 magnetization 
 augmentation part        6.9601113 magnetization 

 Broyden mixing:
  rms(total) = 0.34546E-02    rms(broyden)= 0.34528E-02
  rms(prec ) = 0.47776E-02
  weight for this iteration     100.00

 eigenvalues of (default mixing * dielectric matrix)
  average eigenvalue GAMMA=   1.6573
  5.3386  3.3162  2.5122  1.8993  0.9623  0.9623  1.0907  1.0907  1.0036  1.0036
  0.6783  0.8434  0.8434

 Free energy of the ion-electron system (eV)
  ---------------------------------------------------
  alpha Z        PSCENC =       158.40289987
  Ewald energy   TEWEN  =      7901.60522329
  -Hartree energ DENC   =    -13814.48307987
  -exchange      EXHF   =         0.00000000
  -V(xc)+E(xc)   XCENC  =      -344.62441360
  PAW double counting   =      6750.03817148    -6030.47518577
  entropy T*S    EENTRO =        -0.00717419
  eigenvalues    EBANDS =      -134.03760584
  atomic energy  EATOM  =      5361.07568887
  ---------------------------------------------------
  free energy    TOTEN  =      -152.50547576 eV

  energy without entropy =     -152.49830157  energy(sigma->0) =     -152.50188866


--------------------------------------------------------------------------------------------------------




----------------------------------------- Iteration    1(  19)  ---------------------------------------


    POTLOK:  cpu time    0.10: real time    0.10
    SETDIJ:  cpu time    0.11: real time    0.11
     EDDAV:  cpu time    6.31: real time    6.31
       DOS:  cpu time    0.00: real time    0.00
    CHARGE:  cpu time    0.39: real time    0.39
    MIXING:  cpu time    0.01: real time    0.01
    --------------------------------------------
      LOOP:  cpu time    6.92: real time    6.92

 eigenvalue-minimisations  :  4620
 total energy-change (2. order) : 0.3854476E-03  (-0.2922901E-04)
 number of electron     107.0000002 magnetization 
 augmentation part        6.9606581 magnetization 

 Broyden mixing:
  rms(total) = 0.15477E-02    rms(broyden)= 0.15470E-02
  rms(prec ) = 0.28254E-02
  weight for this iteration     100.00

 eigenvalues of (default mixing * dielectric matrix)
  average eigenvalue GAMMA=   1.8872
  8.4012  3.3403  2.6645  2.4479  0.9826  0.9826  1.3153  1.1254  1.1254  0.9573
  0.9573  0.8516  0.6813  0.5878

 Free energy of the ion-electron system (eV)
  ---------------------------------------------------
  alpha Z        PSCENC =       158.40289987
  Ewald energy   TEWEN  =      7901.60522329
  -Hartree energ DENC   =    -13813.88758149
  -exchange      EXHF   =         0.00000000
  -V(xc)+E(xc)   XCENC  =      -344.62720240
  PAW double counting   =      6751.29621709    -6031.73382625
  entropy T*S    EENTRO =        -0.00718452
  eigenvalues    EBANDS =      -134.62932477
  atomic energy  EATOM  =      5361.07568887
  ---------------------------------------------------
  free energy    TOTEN  =      -152.50509031 eV

  energy without entropy =     -152.49790579  energy(sigma->0) =     -152.50149805


--------------------------------------------------------------------------------------------------------




----------------------------------------- Iteration    1(  20)  ---------------------------------------


    POTLOK:  cpu time    0.10: real time    0.10
    SETDIJ:  cpu time    0.11: real time    0.11
     EDDAV:  cpu time    5.52: real time    5.53
       DOS:  cpu time    0.00: real time    0.00
    CHARGE:  cpu time    0.39: real time    0.39
    MIXING:  cpu time    0.01: real time    0.01
    --------------------------------------------
      LOOP:  cpu time    6.13: real time    6.13

 eigenvalue-minimisations  :  4072
 total energy-change (2. order) : 0.1863274E-03  (-0.2900868E-04)
 number of electron     107.0000002 magnetization 
 augmentation part        6.9605144 magnetization 

 Broyden mixing:
  rms(total) = 0.14639E-02    rms(broyden)= 0.14633E-02
  rms(prec ) = 0.21683E-02
  weight for this iteration     100.00

 eigenvalues of (default mixing * dielectric matrix)
  average eigenvalue GAMMA=   1.8448
  8.7745  3.5236  2.7389  2.4853  0.9929  0.9929  1.1718  1.1718  1.2283  0.9443
  0.9443  0.8623  0.6843  0.5785  0.5785

 Free energy of the ion-electron system (eV)
  ---------------------------------------------------
  alpha Z        PSCENC =       158.40289987
  Ewald energy   TEWEN  =      7901.60522329
  -Hartree energ DENC   =    -13813.35305106
  -exchange      EXHF   =         0.00000000
  -V(xc)+E(xc)   XCENC  =      -344.62449554
  PAW double counting   =      6750.10987824    -6030.54863636
  entropy T*S    EENTRO =        -0.00719411
  eigenvalues    EBANDS =      -135.16521719
  atomic energy  EATOM  =      5361.07568887
  ---------------------------------------------------
  free energy    TOTEN  =      -152.50490398 eV

  energy without entropy =     -152.49770988  energy(sigma->0) =     -152.50130693


--------------------------------------------------------------------------------------------------------




----------------------------------------- Iteration    1(  21)  ---------------------------------------


    POTLOK:  cpu time    0.10: real time    0.10
    SETDIJ:  cpu time    0.11: real time    0.11
     EDDAV:  cpu time    6.13: real time    6.13
       DOS:  cpu time    0.00: real time    0.00
    CHARGE:  cpu time    0.42: real time    0.42
    MIXING:  cpu time    0.01: real time    0.01
    --------------------------------------------
      LOOP:  cpu time    6.76: real time    6.77

 eigenvalue-minimisations  :  4368
 total energy-change (2. order) : 0.9438229E-04  (-0.3601990E-04)
 number of electron     107.0000002 magnetization 
 augmentation part        6.9606756 magnetization 

 Broyden mixing:
  rms(total) = 0.17047E-02    rms(broyden)= 0.17040E-02
  rms(prec ) = 0.19314E-02
  weight for this iteration     100.00

 eigenvalues of (default mixing * dielectric matrix)
  average eigenvalue GAMMA=   2.0209
  9.1573  5.3597  2.9077  2.4507  1.9257  0.9828  0.9828  1.1635  1.1635  1.1260
  1.1260  0.9450  0.9450  0.8082  0.6812  0.6095

 Free energy of the ion-electron system (eV)
  ---------------------------------------------------
  alpha Z        PSCENC =       158.40289987
  Ewald energy   TEWEN  =      7901.60522329
  -Hartree energ DENC   =    -13812.91732671
  -exchange      EXHF   =         0.00000000
  -V(xc)+E(xc)   XCENC  =      -344.62532476
  PAW double counting   =      6749.14673781    -6029.58437081
  entropy T*S    EENTRO =        -0.00719513
  eigenvalues    EBANDS =      -135.60114203
  atomic energy  EATOM  =      5361.07568887
  ---------------------------------------------------
  free energy    TOTEN  =      -152.50480960 eV

  energy without entropy =     -152.49761447  energy(sigma->0) =     -152.50121204


--------------------------------------------------------------------------------------------------------




----------------------------------------- Iteration    1(  22)  ---------------------------------------


    POTLOK:  cpu time    0.10: real time    0.10
    SETDIJ:  cpu time    0.12: real time    0.12
     EDDAV:  cpu time    5.38: real time    5.38
       DOS:  cpu time    0.00: real time    0.00
    CHARGE:  cpu time    0.41: real time    0.41
    MIXING:  cpu time    0.01: real time    0.01
    --------------------------------------------
      LOOP:  cpu time    6.02: real time    6.02

 eigenvalue-minimisations  :  3744
 total energy-change (2. order) : 0.3387781E-04  (-0.3413449E-04)
 number of electron     107.0000002 magnetization 
 augmentation part        6.9606744 magnetization 

 Broyden mixing:
  rms(total) = 0.71834E-03    rms(broyden)= 0.71752E-03
  rms(prec ) = 0.77870E-03
  weight for this iteration     100.00

 eigenvalues of (default mixing * dielectric matrix)
  average eigenvalue GAMMA=   2.1400
 11.7481  5.8557  2.9163  2.5035  2.0971  1.1897  1.1897  0.9837  0.9837  1.1037
  1.1037  0.9566  0.9566  0.8857  0.6803  0.6131  0.6131

 Free energy of the ion-electron system (eV)
  ---------------------------------------------------
  alpha Z        PSCENC =       158.40289987
  Ewald energy   TEWEN  =      7901.60522329
  -Hartree energ DENC   =    -13812.73234595
  -exchange      EXHF   =         0.00000000
  -V(xc)+E(xc)   XCENC  =      -344.62259986
  PAW double counting   =      6749.81319426    -6030.25083419
  entropy T*S    EENTRO =        -0.00719682
  eigenvalues    EBANDS =      -135.78880520
  atomic energy  EATOM  =      5361.07568887
  ---------------------------------------------------
  free energy    TOTEN  =      -152.50477572 eV

  energy without entropy =     -152.49757890  energy(sigma->0) =     -152.50117731


--------------------------------------------------------------------------------------------------------




----------------------------------------- Iteration    1(  23)  ---------------------------------------


    POTLOK:  cpu time    0.10: real time    0.10
    SETDIJ:  cpu time    0.11: real time    0.11
     EDDAV:  cpu time    4.63: real time    4.63
       DOS:  cpu time    0.00: real time    0.00
    CHARGE:  cpu time    0.39: real time    0.39
    MIXING:  cpu time    0.01: real time    0.01
    --------------------------------------------
      LOOP:  cpu time    5.24: real time    5.25

 eigenvalue-minimisations  :  3084
 total energy-change (2. order) :-0.3958196E-04  (-0.4400643E-04)
 number of electron     107.0000002 magnetization 
 augmentation part        6.9607367 magnetization 

 Broyden mixing:
  rms(total) = 0.20721E-02    rms(broyden)= 0.20714E-02
  rms(prec ) = 0.21070E-02
  weight for this iteration     100.00

 eigenvalues of (default mixing * dielectric matrix)
  average eigenvalue GAMMA=   2.0221
 11.6882  5.8537  2.9263  2.5176  2.0738  1.1852  1.1852  0.9842  0.9842  1.1117
  1.1117  0.9518  0.9518  0.9015  0.6803  0.6146  0.6146  0.0620

 Free energy of the ion-electron system (eV)
  ---------------------------------------------------
  alpha Z        PSCENC =       158.40289987
  Ewald energy   TEWEN  =      7901.60522329
  -Hartree energ DENC   =    -13812.77420116
  -exchange      EXHF   =         0.00000000
  -V(xc)+E(xc)   XCENC  =      -344.62239954
  PAW double counting   =      6749.94880650    -6030.38664914
  entropy T*S    EENTRO =        -0.00719614
  eigenvalues    EBANDS =      -135.74698786
  atomic energy  EATOM  =      5361.07568887
  ---------------------------------------------------
  free energy    TOTEN  =      -152.50481530 eV

  energy without entropy =     -152.49761916  energy(sigma->0) =     -152.50121723


--------------------------------------------------------------------------------------------------------




----------------------------------------- Iteration    1(  24)  ---------------------------------------


    POTLOK:  cpu time    0.10: real time    0.10
    SETDIJ:  cpu time    0.11: real time    0.11
     EDDAV:  cpu time    3.40: real time    3.40
       DOS:  cpu time    0.00: real time    0.00
    --------------------------------------------
      LOOP:  cpu time    3.61: real time    3.61

 eigenvalue-minimisations  :  1948
 total energy-change (2. order) :-0.4193153E-06  (-0.1587634E-05)
 number of electron     107.0000002 magnetization 
 augmentation part        6.9607367 magnetization 

 Free energy of the ion-electron system (eV)
  ---------------------------------------------------
  alpha Z        PSCENC =       158.40289987
  Ewald energy   TEWEN  =      7901.60522329
  -Hartree energ DENC   =    -13812.78044639
  -exchange      EXHF   =         0.00000000
  -V(xc)+E(xc)   XCENC  =      -344.62231118
  PAW double counting   =      6750.05540276    -6030.49330830
  entropy T*S    EENTRO =        -0.00719606
  eigenvalues    EBANDS =      -135.74076858
  atomic energy  EATOM  =      5361.07568887
  ---------------------------------------------------
  free energy    TOTEN  =      -152.50481572 eV

  energy without entropy =     -152.49761966  energy(sigma->0) =     -152.50121769


--------------------------------------------------------------------------------------------------------




 average (electrostatic) potential at core
  the test charge radii are     0.7215  1.0714  1.0406
  (the norm of the test charge is              1.0000)
       1 -69.5817       2 -69.5270       3 -69.5221       4 -69.5358       5 -69.5524
       6 -69.5726       7 -69.5765       8 -69.5468       9 -69.5274      10 -69.5632
      11 -69.5872      12 -35.1096      13 -35.0833      14 -35.1194      15 -35.1216
      16 -35.0877      17 -35.0997      18 -35.1473      19 -35.1090      20 -35.0861
      21 -35.1355      22 -73.3768      23 -74.3023      24 -73.3975      25 -73.3215
      26 -74.3038      27 -73.3215      28 -73.3981
 
 
 
 E-fermi :   7.3410     XC(G=0): -10.6343     alpha+bet :-13.3372


 k-point     1 :       0.0000    0.0000    0.0000
  band No.  band energies     occupation 
      1     -13.9041      2.00000
      2     -13.8422      2.00000
      3     -13.7496      2.00000
      4     -13.6264      2.00000
      5     -13.4845      2.00000
      6     -13.3359      2.00000
      7     -13.1894      2.00000
[...]
     23       0.4318      2.00000
     24       0.5527      2.00000
     25       0.7131      2.00000
     26       0.8498      2.00000
     27       0.9959      2.00000
     28       1.0642      2.00000
     29       1.1073      2.00000
     30       1.1776      2.00000
     31       1.2263      2.00000
     32       1.2869      2.00000
     33       1.3012      2.00000
     34       1.3949      2.00000
     35       1.4893      2.00000
     36       1.5890      2.00000
     37       1.6967      2.00000
     38       1.7716      2.00000
     39       1.9028      2.00000
     40       1.9876      2.00000
     41       2.0312      2.00000
     42       2.1334      2.00000
     43       2.1762      2.00000
     44       2.1945      2.00000
     45       2.2839      2.00000
     46       2.3724      2.00000
     47       2.8228      2.00000
     48       3.7637      2.00000
     49       4.8707      2.00000
     50       4.9513      2.00000
     51       5.2445      2.00000
     52       5.7149      2.00000
     53       6.3569      2.00000
     54       6.5351      2.00000
     55       6.7396      2.00000
     56       7.1125      2.00000
     57       7.4797      0.00103
     58       8.0357      0.00000
     59       8.6589      0.00000
     60       8.8330      0.00000
     61       9.6882      0.00000
     62       9.7657      0.00000
     63      10.2213      0.00000
     64      11.0699      0.00000
     65      11.3996      0.00000
     66      11.9800      0.00000
     67      12.3925      0.00000
     68      12.4478      0.00000

 k-point    20 :       0.3846    0.2308   -0.0000
  band No.  band energies     occupation 
      1     -12.5930      2.00000
      2     -12.5756      2.00000
      3     -12.5663      2.00000
      4     -12.5495      2.00000
      5     -12.5313      2.00000
      6     -12.5101      2.00000
      7     -12.4918      2.00000
      8     -12.4742      2.00000
      9     -12.4553      2.00000
     10     -12.3208      2.00000
     11     -12.3178      2.00000
     12      -0.7471      2.00000
     13      -0.6830      2.00000
     14      -0.5779      2.00000
     15      -0.4570      2.00000
     16      -0.3359      2.00000
     17      -0.2968      2.00000
     18      -0.2745      2.00000
     19      -0.2413      2.00000
     20      -0.2378      2.00000
     21      -0.1774      2.00000
     22      -0.1740      2.00000
     23       0.6411      2.00000
     24       0.6626      2.00000
     25       0.7091      2.00000
     26       0.7548      2.00000
     27       0.7713      2.00000
     28       0.8220      2.00000
     29       0.8259      2.00000
     30       0.9274      2.00000
     31       1.0908      2.00000
     32       1.2344      2.00000
     33       1.3548      2.00000
     34       1.4455      2.00000
     35       1.4572      2.00000
     36       1.7601      2.00000
     37       1.8032      2.00000
     38       1.8517      2.00000
     39       1.9094      2.00000
     40       1.9845      2.00000
     41       2.1102      2.00000
     42       2.1860      2.00000
     43       2.2332      2.00000
     44       2.2407      2.00000
     45       3.1500      2.00000
     46       3.1813      2.00000
     47       3.4923      2.00000
     48       3.5821      2.00000
     49       4.0789      2.00000
     50       4.2449      2.00000
     51       4.9386      2.00000
     52       5.2077      2.00000
     53       6.1762      2.00000
     54       6.3707      2.00000
     55       6.7042      2.00000
     56       6.7134      2.00000
     57       7.1468      2.00000
     58       7.9336      0.00000
     59       8.3176      0.00000
     60       8.6353      0.00000
     61       9.6384      0.00000
     62       9.9070      0.00000
     63      10.0532      0.00000
     64      10.9608      0.00000
     65      11.2803      0.00000
     66      11.4753      0.00000
     67      12.4516      0.00000
     68      12.5659      0.00000

 k-point    21 :       0.3077    0.3077   -0.0000
  band No.  band energies     occupation 
      1     -12.5597      2.00000
      2     -12.5422      2.00000
      3     -12.5364      2.00000
      4     -12.5237      2.00000
      5     -12.5108      2.00000
      6     -12.4976      2.00000
      7     -12.4846      2.00000
      8     -12.4720      2.00000
      9     -12.4577      2.00000
     10     -12.3039      2.00000
     11     -12.3009      2.00000
     12      -0.3920      2.00000
     13      -0.3844      2.00000
     14      -0.3448      2.00000
     15      -0.3175      2.00000
     16      -0.2679      2.00000
     17      -0.2100      2.00000
     18      -0.1826      2.00000
     19      -0.0734      2.00000
     20       0.0213      2.00000
     21       0.0844      2.00000
     22       0.0979      2.00000
     23       0.1934      2.00000
     24       0.3164      2.00000
     25       0.3967      2.00000
     26       0.4603      2.00000
     27       0.5284      2.00000
     28       0.5855      2.00000
     29       0.6248      2.00000
     30       0.7493      2.00000
     31       0.7676      2.00000
     32       0.8962      2.00000
     33       0.9034      2.00000
     34       1.4559      2.00000
     35       1.4637      2.00000
     36       1.7683      2.00000
     37       1.8759      2.00000
     38       1.9613      2.00000
     39       1.9852      2.00000
     40       2.0144      2.00000
     41       2.0584      2.00000
     42       2.0604      2.00000
     43       2.1074      2.00000
     44       2.2016      2.00000
     45       3.0454      2.00000
     46       3.4262      2.00000
     47       4.0389      2.00000
     48       4.6452      2.00000
     49       4.6587      2.00000
     50       4.8854      2.00000
     51       5.0145      2.00000
     52       5.0165      2.00000
     53       5.5085      2.00000
     54       5.5958      2.00000
     55       5.9249      2.00000
     56       6.3633      2.00000
     57       7.2044      1.99999
     58       7.9050      0.00000
     59       8.0639      0.00000
     60       8.2957      0.00000
     61       9.3928      0.00000
     62       9.4435      0.00000
     63       9.9403      0.00000
     64      11.0713      0.00000
     65      11.1630      0.00000
     66      11.5370      0.00000
     67      12.4653      0.00000
     68      12.5709      0.00000


--------------------------------------------------------------------------------------------------------


 soft charge-density along one line, spin component           1
         0         1         2         3         4         5         6         7         8         9
 total charge-density along one line
 
 pseudopotential strength for first ion, spin component:           1
 12.091   0.000 -14.705   0.000  -0.000   0.000  -0.007   0.000   0.000   0.000   0.000   0.000   0.008   0.000  -0.000   0.000
-14.705   0.000  17.903   0.000   0.000   0.000   0.008   0.000  -0.000   0.000  -0.000   0.000  -0.010   0.000   0.000   0.000
 -0.000   0.000   0.000   0.000  -8.221   0.000  -0.000   0.000   0.000   0.000   9.826   0.000   0.000   0.000  -0.000   0.000
 -0.007   0.000   0.008   0.000  -0.000   0.000  -8.231   0.000   0.000   0.000   0.000   0.000   9.838   0.000  -0.000   0.000
  0.000   0.000  -0.000   0.000   0.000   0.000   0.000   0.000  -8.221   0.000  -0.000   0.000  -0.000   0.000   9.826   0.000
  0.000   0.000  -0.000   0.000   9.826   0.000   0.000   0.000  -0.000   0.000 -11.577   0.000  -0.000   0.000   0.000   0.000
  0.008   0.000  -0.010   0.000   0.000   0.000   9.838   0.000  -0.000   0.000  -0.000   0.000 -11.594   0.000   0.000   0.000
 -0.000   0.000   0.000   0.000  -0.000   0.000  -0.000   0.000   9.826   0.000   0.000   0.000   0.000   0.000 -11.577   0.000
 total augmentation occupancy for first ion, spin component:           1
  2.524   0.326   0.000   0.037  -0.000  -0.000   0.004  -0.000
  0.326   0.086  -0.000   0.020  -0.000  -0.000  -0.009   0.000
  0.000   0.000   2.069  -0.000  -0.000   0.233   0.000  -0.000
  0.037   0.020  -0.000   2.068  -0.000   0.000   0.242  -0.000
 -0.000   0.000  -0.000  -0.000   2.069  -0.000  -0.000   0.233
 -0.000  -0.000   0.233   0.000  -0.000   0.030   0.000  -0.000
  0.004  -0.009   0.000   0.242  -0.000   0.000   0.035  -0.000
 -0.000   0.000  -0.000  -0.000   0.233  -0.000  -0.000   0.030


------------------------ aborting loop because EDIFF is reached ----------------------------------------


    CHARGE:  cpu time    0.39: real time    0.39
    FORLOC:  cpu time    0.03: real time    0.03
    FORNL :  cpu time    3.34: real time    3.35
    STRESS:  cpu time    4.42: real time    4.43
    FORCOR:  cpu time    0.14: real time    0.14
    FORHAR:  cpu time    0.06: real time    0.06
    MIXING:  cpu time    0.00: real time    0.00
    OFIELD:  cpu time    0.00: real time    0.00

  FORCE on cell =-STRESS in cart. coord.  units (eV):
  Direction    XX          YY          ZZ          XY          YZ          ZX
  --------------------------------------------------------------------------------------
  Alpha Z   158.40290   158.40290   158.40290
  Ewald   11400.14749 11400.14798-14311.75644    -0.00017     0.00001    -0.00014
  Hartree 13365.82027 13365.82018-12334.19357    -0.00000     0.00000     0.00004
  E(xc)    -451.91477  -451.91478  -452.02171    -0.00000     0.00000    -0.00000
  Local  -26112.10546-26112.10489 25304.70106    -0.00019    -0.00001     0.00004
  n-local   -74.98693   -91.48643   -79.24419     3.48118    -1.67106     4.70433
  augment    67.41704    67.41678    66.57262     0.00019    -0.00000     0.00000
  Kinetic  1658.72635  1648.27530  1638.79169    -3.86592     0.07072     0.35678
  Fock        0.00000     0.00000     0.00000     0.00000     0.00000     0.00000
  -------------------------------------------------------------------------------------
  Total      -1.96804    -1.96804    -8.74764     0.00000     0.00000     0.00000
  in kB      -9.89090    -9.89090   -43.96359     0.00000     0.00000     0.00000
  external pressure =      -21.25 kB  Pullay stress =        0.00 kB


 VOLUME and BASIS-vectors are now :
 -----------------------------------------------------------------------------
  energy-cutoff  :      520.00
  volume of cell :      318.79
      direct lattice vectors                 reciprocal lattice vectors
     2.575303410 -1.486851677  0.000000000     0.388303761  0.000000000  0.000000000
     0.000000000  2.973703354  0.000000000     0.194151881  0.336281021  0.000000000
    -0.000000000  0.000000000 41.627704448     0.000000000  0.000000000  0.024022463

  length of vectors
     2.973704014  2.973703354 41.627704448     0.388303761  0.388303847  0.024022463


 FORCES acting on ions
    electron-ion (+dipol)            ewald-force                    non-local-force                 convergence-correction
 -----------------------------------------------------------------------------------------------
   0.106E-02 -.183E-02 0.111E+04   0.517E-04 -.610E-04 -.111E+04   -.163E-16 0.278E-16 0.259E+01   -.161E-08 0.273E-08 -.291E-01
   -.309E-08 -.782E-10 0.676E+03   -.225E-07 0.270E-07 -.676E+03   -.494E-18 0.000E+00 0.234E-01   -.114E-08 0.193E-08 -.938E-03
   0.105E-02 -.182E-02 0.451E+03   0.563E-04 -.974E-04 -.451E+03   0.383E-18 -.169E-20 -.178E-01   0.131E-07 -.221E-07 0.282E-01
   0.913E-09 -.620E-10 -.513E-01   0.268E-07 -.307E-07 0.232E-02   0.363E-18 0.000E+00 -.165E-01   0.514E-09 -.685E-09 0.581E-01
   0.105E-02 -.182E-02 -.225E+03   0.562E-04 -.973E-04 0.225E+03   0.275E-18 -.136E-19 -.125E-01   -.259E-08 0.496E-08 0.581E-01
   0.191E-08 0.299E-09 -.676E+03   0.509E-07 -.587E-07 0.676E+03   0.172E-18 -.271E-19 -.860E-02   0.148E-08 -.241E-08 0.127E-01
   0.105E-02 -.183E-02 -.902E+03   0.562E-04 -.969E-04 0.902E+03   0.102E-17 0.434E-18 -.730E-01   0.213E-08 -.396E-08 -.199E-01
   -.105E-02 0.183E-02 0.902E+03   -.562E-04 0.968E-04 -.902E+03   -.283E-17 0.217E-18 0.107E+00   -.804E-08 0.139E-07 -.207E-01
   -.105E-02 0.182E-02 0.225E+03   -.562E-04 0.973E-04 -.225E+03   0.143E-18 -.542E-19 -.775E-02   -.108E-07 0.186E-07 0.438E-01
   -.105E-02 0.182E-02 -.451E+03   -.563E-04 0.975E-04 0.451E+03   -.983E-19 -.339E-20 0.472E-02   -.792E-08 0.136E-07 0.334E-01
   -.106E-02 0.183E-02 -.111E+04   -.517E-04 0.610E-04 0.111E+04   0.300E-16 -.278E-16 -.256E+01   0.113E-08 -.158E-08 -.320E-01
   -.695E-06 0.348E-06 0.337E+03   0.115E-05 -.142E-05 -.337E+03   -.689E-18 0.104E-16 -.495E-01   0.240E-09 -.489E-09 -.923E-02
   0.628E-08 0.238E-07 0.113E+03   -.771E-07 0.874E-07 -.113E+03   -.289E-18 0.163E-18 0.872E-02   -.416E-09 0.726E-09 0.120E-01
   -.335E-07 0.437E-07 -.113E+03   0.343E-07 -.391E-07 0.113E+03   0.940E-19 0.000E+00 -.539E-02   0.995E-09 -.178E-08 0.168E-01
   0.692E-06 -.316E-06 -.337E+03   -.120E-05 0.148E-05 0.337E+03   0.239E-17 0.694E-17 0.597E-01   -.238E-09 0.433E-09 -.898E-02
   0.432E-04 -.748E-04 0.188E+03   -.484E-04 0.838E-04 -.188E+03   -.104E-18 0.000E+00 0.435E-02   0.531E-09 -.104E-08 0.444E-02
   0.431E-04 -.747E-04 -.376E+02   -.483E-04 0.837E-04 0.375E+02   -.651E-19 -.542E-19 0.302E-02   -.494E-09 0.834E-09 0.196E-01
   0.432E-04 -.748E-04 -.263E+03   -.484E-04 0.838E-04 0.263E+03   -.289E-19 -.108E-18 0.802E-02   0.800E-09 -.152E-08 -.833E-04
   -.432E-04 0.748E-04 0.263E+03   0.484E-04 -.838E-04 -.263E+03   0.907E-19 -.108E-18 -.637E-02   -.744E-10 0.223E-09 -.415E-02
   -.431E-04 0.747E-04 0.375E+02   0.483E-04 -.837E-04 -.375E+02   -.154E-20 -.136E-19 0.193E-03   0.357E-09 -.524E-09 0.181E-01
   -.431E-04 0.747E-04 -.188E+03   0.484E-04 -.838E-04 0.188E+03   -.137E-18 0.108E-18 0.426E-02   -.107E-08 0.202E-08 0.819E-02
   -.463E-09 0.506E-09 -.254E-01   0.108E-08 -.108E-08 0.338E-01   -.394E-19 0.000E+00 0.152E-02   -.435E-12 -.411E-12 -.937E-02
   0.909E-05 -.273E-05 0.588E+03   -.220E-04 0.232E-04 -.594E+03   -.165E-15 0.000E+00 0.643E+01   0.522E-09 -.984E-09 -.159E-01
   0.160E-04 -.278E-04 0.417E+03   -.394E-05 0.657E-05 -.417E+03   -.210E-16 0.278E-16 0.527E-01   -.211E-10 0.388E-10 -.133E-01
   -.154E-04 0.266E-04 0.207E+03   0.341E-05 -.583E-05 -.207E+03   -.108E-16 -.347E-17 0.360E+00   0.533E-11 -.543E-11 -.104E-01
   -.909E-05 0.273E-05 -.588E+03   0.220E-04 -.232E-04 0.594E+03   0.155E-15 0.278E-16 -.643E+01   0.266E-09 -.475E-09 -.158E-01
   0.154E-04 -.266E-04 -.207E+03   -.341E-05 0.583E-05 0.207E+03   0.824E-17 0.000E+00 -.361E+00   0.404E-11 -.846E-11 -.104E-01
   -.160E-04 0.278E-04 -.417E+03   0.394E-05 -.657E-05 0.417E+03   0.279E-16 -.278E-16 -.515E-01   0.129E-12 0.561E-11 -.130E-01
 -----------------------------------------------------------------------------------------------
   0.103E-06 -.907E-07 -.158E+00   0.444E-13 0.336E-13 0.455E-12   0.786E-17 0.422E-16 0.578E-01   -.124E-07 0.224E-07 0.100E+00
 
 
 POSITION                                       TOTAL-FORCE (eV/Angst)
 -----------------------------------------------------------------------------------
      0.85843      1.48685      9.33617        -0.000000      0.000000      0.011082
     -0.00000     -0.00000     14.35434        -0.000000     -0.000000      0.006534
      0.85843      1.48685     16.84760         0.000000     -0.000000     -0.009485
     -0.00000     -0.00000     21.83555         0.000000     -0.000000     -0.007335
      0.85843      1.48685     24.33001         0.000000      0.000000     -0.005822
     -0.00000     -0.00000     29.31676         0.000000     -0.000000     -0.004311
      0.85843      1.48685     31.80958        -0.000000      0.000000      0.000037
      1.71687     -0.00000     11.86166        -0.000000      0.000000      0.007384
      1.71687     -0.00000     19.34086         0.000000     -0.000000     -0.002859
      1.71687     -0.00000     26.82346         0.000000     -0.000000      0.001551
      1.71687     -0.00000     34.33512         0.000000     -0.000000     -0.004720
     -0.00000     -0.00000     10.61802        -0.000000     -0.000000      0.002741
     -0.00000     -0.00000     18.09339        -0.000000     -0.000000      0.018930
     -0.00000     -0.00000     25.57713         0.000000     -0.000000     -0.011145
     -0.00000     -0.00000     33.05271         0.000000     -0.000000     -0.005305
      1.71687     -0.00000     15.60059        -0.000000     -0.000000      0.009100
      1.71687     -0.00000     23.08238        -0.000000     -0.000000      0.009275
      1.71687     -0.00000     30.56251         0.000000     -0.000000     -0.008524
      0.85843      1.48685     13.10874         0.000000     -0.000000     -0.005299
      0.85843      1.48685     20.58809        -0.000000     -0.000000      0.002884
      0.85843      1.48685     28.06979        -0.000000     -0.000000      0.000617
     -0.00000     -0.00000      1.02145        -0.000000     -0.000000      0.000548
     -0.00000     -0.00000      7.85985        -0.000000     -0.000000      0.010613
      1.71687     -0.00000      5.64765         0.000000     -0.000000     -0.002988
      0.85843      1.48685      3.32404        -0.000000     -0.000000      0.002852
     -0.00000     -0.00000     35.81108         0.000000     -0.000000     -0.015639
      1.71687     -0.00000     40.34679         0.000000     -0.000000     -0.003552
      0.85843      1.48685     38.02321        -0.000000     -0.000000      0.002833
 -----------------------------------------------------------------------------------
    total drift:                                0.000000     -0.000000     -0.000147


--------------------------------------------------------------------------------------------------------



  FREE ENERGIE OF THE ION-ELECTRON SYSTEM (eV)
  ---------------------------------------------------
  free  energy   TOTEN  =      -152.52294720 eV

  energy  without entropy=     -152.51349904  energy(sigma->0) =     -152.51822312
 
 d Force = 0.1097191E-03[ 0.552E-04, 0.164E-03]  d Energy = 0.1051249E-03 0.459E-05
 d Force =-0.6659135E+01[-0.666E+01,-0.666E+01]  d Ewald  =-0.6659136E+01 0.587E-07


--------------------------------------------------------------------------------------------------------


    POTLOK:  cpu time    0.21: real time    0.21


--------------------------------------------------------------------------------------------------------


 Conjugate gradient step on ions:
 trial-energy change:   -0.000105  1 .order   -0.000110   -0.000164   -0.000055
  (g-gl).g = 0.149E-03      g.g   = 0.144E-03  gl.gl    = 0.474E-03
 g(Force)  = 0.144E-03   g(Stress)= 0.000E+00 ortho     =-0.235E-05
 gamma     =   0.31414
 trial     =   1.14879
 opt step  =   1.73098  (harmonic =   1.73098) maximal distance =0.00191107
 next E    =  -152.522966   (d E  =  -0.00012)


--------------------------------------------------------------------------------------------------------


  
 reached required accuracy - stopping structural energy minimisation
     LOOP+:  cpu time   36.37: real time   36.42
    4ORBIT:  cpu time    0.00: real time    0.00

 total amount of memory used by VASP on root node   148699. kBytes
========================================================================

   base      :      30000. kBytes
   nonl-proj :      15400. kBytes
   fftplans  :      55170. kBytes
   grid      :      22118. kBytes
   one-center:         56. kBytes
   wavefun   :      25955. kBytes
 
  
  
 General timing and accounting informations for this job:
 ========================================================
  
                  Total CPU time used (sec):     1502.346
                            User time (sec):     1484.472
                          System time (sec):       17.874
                         Elapsed time (sec):     1504.324
  
                   Maximum memory used (kb):      256592.
                   Average memory used (kb):           0.
  
                          Minor page faults:       335638
                          Major page faults:            0
                 Voluntary context switches:          303
