       N       E                     dE             d eps       ncg     rms          rms(c)
DAV:   1     0.505287384293E+03    0.50529E+03   -0.44325E+04  6304   0.135E+03
DAV:   2    -0.100337334475E+03   -0.60562E+03   -0.57638E+03  8064   0.260E+02
DAV:   3    -0.155274830943E+03   -0.54937E+02   -0.54624E+02  7416   0.850E+01
DAV:   4    -0.155961504116E+03   -0.68667E+00   -0.68547E+00  7344   0.103E+01
DAV:   5    -0.155971537686E+03   -0.10034E-01   -0.10030E-01  7472   0.123E+00    0.230E+01
DAV:   6    -0.140476476299E+03    0.15495E+02   -0.88619E+01  7632   0.322E+01    0.792E+00
DAV:   7    -0.140376703846E+03    0.99772E-01   -0.24757E+00  7088   0.627E+00    0.482E+00
DAV:   8    -0.140305429463E+03    0.71274E-01   -0.84883E-01  7344   0.463E+00    0.132E+00
DAV:   9    -0.140267946957E+03    0.37483E-01   -0.15064E-01  7336   0.167E+00    0.602E-01
DAV:  10    -0.140272310458E+03   -0.43635E-02   -0.11094E-01  7176   0.130E+00    0.439E-01
DAV:  11    -0.140269120598E+03    0.31899E-02   -0.10884E-02  7736   0.503E-01    0.265E-01
DAV:  12    -0.140269008538E+03    0.11206E-03   -0.13371E-02  7272   0.507E-01    0.126E-01
DAV:  13    -0.140268881657E+03    0.12688E-03   -0.14056E-03  7736   0.204E-01    0.618E-02
DAV:  14    -0.140268832586E+03    0.49071E-04   -0.64365E-04  7416   0.122E-01    0.162E-02
DAV:  15    -0.140268817146E+03    0.15440E-04   -0.76093E-05  7296   0.445E-02    0.848E-03
DAV:  16    -0.140268803024E+03    0.14122E-04   -0.13344E-05  4824   0.311E-02    0.768E-03
DAV:  17    -0.140268798864E+03    0.41601E-05   -0.10969E-05  4456   0.174E-02
   1 F= -.14026880E+03 E0= -.14026642E+03  d E =-.140269E+03
       N       E                     dE             d eps       ncg     rms          rms(c)
DAV:   1    -0.140271498938E+03   -0.26959E-02   -0.49019E-02  6576   0.914E-01    0.590E-02
DAV:   2    -0.140271476163E+03    0.22775E-04   -0.30663E-03  7360   0.229E-01    0.525E-02
DAV:   3    -0.140271403223E+03    0.72940E-04   -0.31796E-04  7192   0.723E-02    0.404E-02
DAV:   4    -0.140271344573E+03    0.58650E-04   -0.12262E-04  7232   0.500E-02    0.205E-02
DAV:   5    -0.140271260583E+03    0.83990E-04   -0.11385E-04  7352   0.687E-02    0.122E-02
DAV:   6    -0.140271229568E+03    0.31015E-04   -0.52282E-05  7240   0.406E-02    0.930E-03
DAV:   7    -0.140271206693E+03    0.22875E-04   -0.19129E-05  5504   0.331E-02    0.712E-03
DAV:   8    -0.140271155745E+03    0.50948E-04   -0.36089E-05  6328   0.905E-02    0.936E-03
DAV:   9    -0.140271143611E+03    0.12134E-04   -0.38159E-05  6336   0.425E-02    0.698E-03
DAV:  10    -0.140271126962E+03    0.16649E-04   -0.80148E-06  4480   0.484E-02    0.448E-03
DAV:  11    -0.140271104272E+03    0.22691E-04   -0.36225E-05  6488   0.106E-01    0.698E-03
DAV:  12    -0.140271106173E+03   -0.19015E-05   -0.55140E-05  6296   0.317E-02
   2 F= -.14027111E+03 E0= -.14026866E+03  d E =-.230731E-02
       N       E                     dE             d eps       ncg     rms          rms(c)
DAV:   1    -0.140271567523E+03   -0.46325E-03   -0.34749E-02  6480   0.772E-01    0.519E-02
DAV:   2    -0.140271572760E+03   -0.52365E-05   -0.23258E-03  7352   0.201E-01    0.467E-02
DAV:   3    -0.140271527727E+03    0.45033E-04   -0.23904E-04  7200   0.634E-02    0.360E-02
DAV:   4    -0.140271492843E+03    0.34883E-04   -0.88270E-05  7120   0.409E-02    0.183E-02
DAV:   5    -0.140271445963E+03    0.46880E-04   -0.75398E-05  7200   0.505E-02    0.100E-02
DAV:   6    -0.140271429795E+03    0.16168E-04   -0.29188E-05  6608   0.280E-02    0.820E-03
DAV:   7    -0.140271417141E+03    0.12654E-04   -0.13986E-05  5392   0.241E-02    0.562E-03
DAV:   8    -0.140271386603E+03    0.30539E-04   -0.20841E-05  5576   0.708E-02    0.905E-03
DAV:   9    -0.140271381676E+03    0.49265E-05   -0.21760E-05  5544   0.256E-02
   3 F= -.14027138E+03 E0= -.14026888E+03  d E =-.258281E-02
       N       E                     dE             d eps       ncg     rms          rms(c)
DAV:   1    -0.140271451912E+03   -0.65309E-04   -0.29401E-03  6744   0.226E-01    0.172E-02
DAV:   2    -0.140271451034E+03    0.87765E-06   -0.21185E-04  7368   0.674E-02    0.142E-02
DAV:   3    -0.140271447820E+03    0.32144E-05   -0.29086E-05  5968   0.244E-02    0.116E-02
DAV:   4    -0.140271444686E+03    0.31332E-05   -0.74477E-06  4200   0.128E-02    0.648E-03
DAV:   5    -0.140271440063E+03    0.46232E-05   -0.90476E-06  4936   0.236E-02    0.410E-03
DAV:   6    -0.140271438991E+03    0.10725E-05   -0.47255E-06  4120   0.159E-02
   4 F= -.14027144E+03 E0= -.14026895E+03  d E =-.264013E-02
       N       E                     dE             d eps       ncg     rms          rms(c)
DAV:   1    -0.140272166856E+03   -0.72679E-03   -0.45151E-01  6272   0.282E+00    0.915E-02
DAV:   2    -0.140273234199E+03   -0.10673E-02   -0.11569E-02  7088   0.381E-01    0.551E-02
DAV:   3    -0.140273166819E+03    0.67380E-04   -0.84549E-05  7528   0.530E-02    0.357E-02
DAV:   4    -0.140273123070E+03    0.43749E-04   -0.10058E-04  7360   0.574E-02    0.122E-02
DAV:   5    -0.140273116751E+03    0.63193E-05   -0.53674E-05  6976   0.368E-02    0.602E-03
DAV:   6    -0.140273111928E+03    0.48228E-05   -0.84317E-06  4424   0.174E-02
   5 F= -.14027311E+03 E0= -.14027057E+03  d E =-.167294E-02
       N       E                     dE             d eps       ncg     rms          rms(c)
DAV:   1    -0.140268347380E+03    0.47694E-02   -0.30771E+00  6272   0.736E+00    0.242E-01
DAV:   2    -0.140275750128E+03   -0.74027E-02   -0.80719E-02  7112   0.992E-01    0.152E-01
DAV:   3    -0.140275226678E+03    0.52345E-03   -0.63685E-04  7584   0.142E-01    0.974E-02
DAV:   4    -0.140274879925E+03    0.34675E-03   -0.79919E-04  7344   0.147E-01    0.349E-02
DAV:   5    -0.140274800361E+03    0.79564E-04   -0.33484E-04  7480   0.973E-02    0.160E-02
DAV:   6    -0.140274725983E+03    0.74378E-04   -0.76215E-05  7360   0.642E-02    0.101E-02
DAV:   7    -0.140274670640E+03    0.55342E-04   -0.21935E-05  5816   0.436E-02    0.907E-03
DAV:   8    -0.140274544308E+03    0.12633E-03   -0.73095E-05  7736   0.122E-01    0.981E-03
DAV:   9    -0.140274439532E+03    0.10478E-03   -0.15013E-04  8624   0.153E-01    0.143E-02
DAV:  10    -0.140274379369E+03    0.60163E-04   -0.11380E-04  8232   0.146E-01    0.711E-03
DAV:  11    -0.140274366604E+03    0.12765E-04   -0.11158E-04  7144   0.897E-02    0.647E-03
DAV:  12    -0.140274361418E+03    0.51865E-05   -0.48242E-05  6360   0.416E-02
   6 F= -.14027436E+03 E0= -.14027176E+03  d E =-.292243E-02
       N       E                     dE             d eps       ncg     rms          rms(c)
DAV:   1    -0.140274871943E+03   -0.50534E-03   -0.14320E-01  6376   0.156E+00    0.556E-02
DAV:   2    -0.140275206331E+03   -0.33439E-03   -0.37701E-03  7160   0.223E-01    0.309E-02
DAV:   3    -0.140275187616E+03    0.18716E-04   -0.45238E-05  7144   0.356E-02    0.211E-02
DAV:   4    -0.140275175269E+03    0.12347E-04   -0.41969E-05  6640   0.301E-02    0.793E-03
DAV:   5    -0.140275173285E+03    0.19842E-05   -0.91122E-06  4432   0.201E-02    0.509E-03
DAV:   6    -0.140275171830E+03    0.14542E-05   -0.75393E-06  4360   0.237E-02
   7 F= -.14027517E+03 E0= -.14027256E+03  d E =-.810413E-03
       N       E                     dE             d eps       ncg     rms          rms(c)
DAV:   1    -0.140273841871E+03    0.13314E-02   -0.12917E+00  6288   0.468E+00    0.157E-01
DAV:   2    -0.140276824068E+03   -0.29822E-02   -0.32942E-02  7120   0.642E-01    0.909E-02
DAV:   3    -0.140276670468E+03    0.15360E-03   -0.36410E-04  7408   0.102E-01    0.618E-02
DAV:   4    -0.140276582335E+03    0.88133E-04   -0.27727E-04  7336   0.819E-02    0.242E-02
DAV:   5    -0.140276569910E+03    0.12425E-04   -0.81005E-05  7304   0.499E-02    0.117E-02
DAV:   6    -0.140276566638E+03    0.32718E-05   -0.42682E-05  6744   0.388E-02
   8 F= -.14027657E+03 E0= -.14027393E+03  d E =-.220522E-02
       N       E                     dE             d eps       ncg     rms          rms(c)
DAV:   1    -0.140276426158E+03    0.14375E-03   -0.11301E-01  6288   0.139E+00    0.491E-02
DAV:   2    -0.140276684896E+03   -0.25874E-03   -0.29025E-03  7104   0.191E-01    0.256E-02
DAV:   3    -0.140276669939E+03    0.14957E-04   -0.32955E-05  6824   0.327E-02    0.175E-02
DAV:   4    -0.140276658819E+03    0.11119E-04   -0.22637E-05  5504   0.287E-02    0.678E-03
DAV:   5    -0.140276655103E+03    0.37160E-05   -0.91603E-06  4432   0.216E-02    0.443E-03
DAV:   6    -0.140276651426E+03    0.36771E-05   -0.68380E-06  4352   0.208E-02
   9 F= -.14027665E+03 E0= -.14027401E+03  d E =-.229001E-02
       N       E                     dE             d eps       ncg     rms          rms(c)
DAV:   1    -0.140277646104E+03   -0.99100E-03   -0.80540E-02  6384   0.121E+00    0.347E-02
DAV:   2    -0.140277773098E+03   -0.12699E-03   -0.16888E-03  7328   0.166E-01    0.245E-02
DAV:   3    -0.140277751192E+03    0.21907E-04   -0.21831E-05  5472   0.312E-02    0.169E-02
DAV:   4    -0.140277719766E+03    0.31425E-04   -0.51332E-05  6792   0.583E-02    0.655E-03
DAV:   5    -0.140277714333E+03    0.54335E-05   -0.27316E-05  5744   0.276E-02    0.776E-03
DAV:   6    -0.140277707592E+03    0.67411E-05   -0.59092E-06  4224   0.166E-02
  10 F= -.14027771E+03 E0= -.14027506E+03  d E =-.105617E-02
       N       E                     dE             d eps       ncg     rms          rms(c)
DAV:   1    -0.140278239055E+03   -0.52472E-03   -0.72340E-01  6368   0.362E+00    0.104E-01
DAV:   2    -0.140279435205E+03   -0.11962E-02   -0.15375E-02  7336   0.504E-01    0.730E-02
DAV:   3    -0.140279254113E+03    0.18109E-03   -0.20733E-04  7456   0.931E-02    0.498E-02
DAV:   4    -0.140279011289E+03    0.24282E-03   -0.40558E-04  7424   0.158E-01    0.195E-02
DAV:   5    -0.140278974419E+03    0.36871E-04   -0.20890E-04  7320   0.758E-02    0.220E-02
DAV:   6    -0.140278931876E+03    0.42543E-04   -0.46880E-05  6336   0.421E-02    0.117E-02
DAV:   7    -0.140278777064E+03    0.15481E-03   -0.35836E-05  6480   0.124E-01    0.107E-02
DAV:   8    -0.140278517241E+03    0.25982E-03   -0.20080E-04  9520   0.270E-01    0.164E-02
DAV:   9    -0.140278313468E+03    0.20377E-03   -0.33869E-04  9440   0.343E-01    0.138E-02
DAV:  10    -0.140278273000E+03    0.40468E-04   -0.46451E-04  8576   0.275E-01    0.916E-03
DAV:  11    -0.140278312380E+03   -0.39381E-04   -0.44154E-04  6824   0.737E-02    0.238E-02
DAV:  12    -0.140278313320E+03   -0.93950E-06   -0.13197E-05  4672   0.131E-02
  11 F= -.14027831E+03 E0= -.14027563E+03  d E =-.166189E-02
       N       E                     dE             d eps       ncg     rms          rms(c)
DAV:   1    -0.140278440920E+03   -0.12854E-03   -0.51718E-02  6720   0.968E-01    0.352E-02
DAV:   2    -0.140278509110E+03   -0.68190E-04   -0.10981E-03  7344   0.142E-01    0.204E-02
DAV:   3    -0.140278494915E+03    0.14195E-04   -0.47916E-05  7000   0.396E-02    0.128E-02
DAV:   4    -0.140278486365E+03    0.85496E-05   -0.18276E-05  4416   0.234E-02    0.709E-03
DAV:   5    -0.140278479126E+03    0.72392E-05   -0.61504E-06  4560   0.250E-02    0.474E-03
DAV:   6    -0.140278472656E+03    0.64705E-05   -0.88319E-06  4632   0.334E-02
  12 F= -.14027847E+03 E0= -.14027579E+03  d E =-.182123E-02
       N       E                     dE             d eps       ncg     rms          rms(c)
DAV:   1    -0.140278970223E+03   -0.49110E-03   -0.11802E-01  6368   0.146E+00    0.389E-02
DAV:   2    -0.140279171737E+03   -0.20151E-03   -0.22904E-03  7240   0.192E-01    0.256E-02
DAV:   3    -0.140279152893E+03    0.18845E-04   -0.17752E-05  5320   0.280E-02    0.177E-02
DAV:   4    -0.140279132005E+03    0.20888E-04   -0.56357E-05  6592   0.521E-02    0.560E-03
DAV:   5    -0.140279130845E+03    0.11598E-05   -0.24333E-05  5584   0.239E-02    0.515E-03
DAV:   6    -0.140279127845E+03    0.30003E-05   -0.50098E-06  4152   0.145E-02
  13 F= -.14027913E+03 E0= -.14027643E+03  d E =-.655189E-03
       N       E                     dE             d eps       ncg     rms          rms(c)
DAV:   1    -0.140278747344E+03    0.38350E-03   -0.10624E+00  6360   0.439E+00    0.119E-01
DAV:   2    -0.140280601542E+03   -0.18542E-02   -0.20778E-02  7264   0.576E-01    0.754E-02
DAV:   3    -0.140280447631E+03    0.15391E-03   -0.17346E-04  7432   0.817E-02    0.510E-02
DAV:   4    -0.140280311995E+03    0.13564E-03   -0.45188E-04  7384   0.133E-01    0.159E-02
DAV:   5    -0.140280310034E+03    0.19607E-05   -0.17067E-04  7088   0.600E-02    0.145E-02
DAV:   6    -0.140280295475E+03    0.14559E-04   -0.37673E-05  6376   0.354E-02    0.786E-03
DAV:   7    -0.140280269329E+03    0.26146E-04   -0.68504E-06  4376   0.453E-02    0.955E-03
DAV:   8    -0.140280238183E+03    0.31146E-04   -0.98221E-06  4856   0.562E-02    0.113E-02
DAV:   9    -0.140280182584E+03    0.55598E-04   -0.40594E-05  7200   0.117E-01    0.655E-03
DAV:  10    -0.140280124139E+03    0.58446E-04   -0.21868E-04  9624   0.264E-01    0.179E-02
DAV:  11    -0.140280137872E+03   -0.13734E-04   -0.23194E-04  6896   0.783E-02    0.205E-02
DAV:  12    -0.140280137888E+03   -0.15382E-07   -0.45607E-05  6080   0.289E-02
  14 F= -.14028014E+03 E0= -.14027741E+03  d E =-.166523E-02
       N       E                     dE             d eps       ncg     rms          rms(c)
DAV:   1    -0.140280105252E+03    0.32620E-04   -0.52840E-02  6536   0.981E-01    0.331E-02
DAV:   2    -0.140280197857E+03   -0.92604E-04   -0.11660E-03  7272   0.139E-01    0.157E-02
DAV:   3    -0.140280192119E+03    0.57379E-05   -0.20190E-05  5056   0.229E-02    0.115E-02
DAV:   4    -0.140280188161E+03    0.39579E-05   -0.14637E-05  4568   0.236E-02    0.428E-03
DAV:   5    -0.140280188019E+03    0.14138E-06   -0.85417E-06  4064   0.145E-02    0.413E-03
DAV:   6    -0.140280187699E+03    0.32043E-06   -0.12118E-06  3816   0.563E-03
  15 F= -.14028019E+03 E0= -.14027746E+03  d E =-.171504E-02
       N       E                     dE             d eps       ncg     rms          rms(c)
DAV:   1    -0.140280704552E+03   -0.51653E-03   -0.89703E-02  6712   0.134E+00    0.394E-02
DAV:   2    -0.140280881865E+03   -0.17731E-03   -0.21403E-03  7248   0.188E-01    0.237E-02
DAV:   3    -0.140280866568E+03    0.15296E-04   -0.35020E-05  6640   0.284E-02    0.172E-02
DAV:   4    -0.140280854058E+03    0.12511E-04   -0.21208E-05  4896   0.283E-02    0.735E-03
DAV:   5    -0.140280848426E+03    0.56322E-05   -0.14847E-05  4512   0.259E-02    0.460E-03
DAV:   6    -0.140280846842E+03    0.15838E-05   -0.76174E-06  4144   0.142E-02
  16 F= -.14028085E+03 E0= -.14027811E+03  d E =-.659143E-03
       N       E                     dE             d eps       ncg     rms          rms(c)
DAV:   1    -0.140280491604E+03    0.35682E-03   -0.80738E-01  6712   0.402E+00    0.118E-01
DAV:   2    -0.140282093828E+03   -0.16022E-02   -0.19336E-02  7248   0.565E-01    0.713E-02
DAV:   3    -0.140281958156E+03    0.13567E-03   -0.33795E-04  7472   0.876E-02    0.521E-02
DAV:   4    -0.140281853183E+03    0.10497E-03   -0.18495E-04  7304   0.797E-02    0.233E-02
DAV:   5    -0.140281795805E+03    0.57378E-04   -0.10705E-04  7256   0.744E-02    0.129E-02
DAV:   6    -0.140281772959E+03    0.22846E-04   -0.68408E-05  7240   0.498E-02    0.855E-03
DAV:   7    -0.140281747779E+03    0.25179E-04   -0.10888E-05  4760   0.369E-02    0.675E-03
DAV:   8    -0.140281685727E+03    0.62052E-04   -0.22922E-05  5816   0.978E-02    0.789E-03
DAV:   9    -0.140281647422E+03    0.38305E-04   -0.47873E-05  6992   0.912E-02    0.751E-03
DAV:  10    -0.140281587003E+03    0.60419E-04   -0.85398E-05  8032   0.214E-01    0.119E-02
DAV:  11    -0.140281592364E+03   -0.53613E-05   -0.16437E-04  6864   0.645E-02    0.137E-02
DAV:  12    -0.140281592941E+03   -0.57735E-06   -0.33636E-05  5704   0.232E-02
  17 F= -.14028159E+03 E0= -.14027884E+03  d E =-.140524E-02
       N       E                     dE             d eps       ncg     rms          rms(c)
DAV:   1    -0.140282055333E+03   -0.46297E-03   -0.52970E-02  6408   0.101E+00    0.270E-02
DAV:   2    -0.140282148034E+03   -0.92702E-04   -0.11578E-03  7200   0.140E-01    0.199E-02
DAV:   3    -0.140282140494E+03    0.75407E-05   -0.19587E-05  4864   0.236E-02    0.149E-02
DAV:   4    -0.140282133815E+03    0.66785E-05   -0.21685E-05  5576   0.251E-02    0.639E-03
DAV:   5    -0.140282132561E+03    0.12537E-05   -0.84221E-06  4152   0.166E-02    0.544E-03
DAV:   6    -0.140282131419E+03    0.11429E-05   -0.42581E-06  4184   0.151E-02
  18 F= -.14028213E+03 E0= -.14027937E+03  d E =-.538477E-03
       N       E                     dE             d eps       ncg     rms          rms(c)
DAV:   1    -0.140282325953E+03   -0.19339E-03   -0.47708E-01  6336   0.303E+00    0.874E-02
DAV:   2    -0.140283207542E+03   -0.88159E-03   -0.10407E-02  7192   0.417E-01    0.550E-02
DAV:   3    -0.140283138514E+03    0.69029E-04   -0.14874E-04  7408   0.661E-02    0.394E-02
DAV:   4    -0.140283080378E+03    0.58135E-04   -0.21814E-04  6872   0.750E-02    0.172E-02
DAV:   5    -0.140283068860E+03    0.11519E-04   -0.50697E-05  6736   0.435E-02    0.167E-02
DAV:   6    -0.140283049808E+03    0.19052E-04   -0.69100E-05  6944   0.642E-02    0.840E-03
DAV:   7    -0.140283042537E+03    0.72708E-05   -0.29899E-05  5744   0.338E-02
  19 F= -.14028304E+03 E0= -.14028027E+03  d E =-.144960E-02
       N       E                     dE             d eps       ncg     rms          rms(c)
DAV:   1    -0.140282984418E+03    0.65390E-04   -0.78214E-02  6408   0.123E+00    0.363E-02
DAV:   2    -0.140283120587E+03   -0.13617E-03   -0.17315E-03  7184   0.173E-01    0.218E-02
DAV:   3    -0.140283103244E+03    0.17343E-04   -0.35071E-05  6568   0.325E-02    0.159E-02
DAV:   4    -0.140283079371E+03    0.23873E-04   -0.27259E-05  6192   0.338E-02    0.760E-03
DAV:   5    -0.140283063603E+03    0.15767E-04   -0.84078E-06  4336   0.352E-02    0.813E-03
DAV:   6    -0.140283035349E+03    0.28254E-04   -0.19359E-05  5328   0.743E-02    0.484E-03
DAV:   7    -0.140283011454E+03    0.23895E-04   -0.36707E-05  6344   0.798E-02    0.815E-03
DAV:   8    -0.140282987140E+03    0.24314E-04   -0.13429E-05  4968   0.732E-02    0.398E-03
DAV:   9    -0.140282966297E+03    0.20843E-04   -0.60570E-05  7712   0.125E-01    0.107E-02
DAV:  10    -0.140282968171E+03   -0.18747E-05   -0.74363E-05  6448   0.500E-02
  20 F= -.14028297E+03 E0= -.14028018E+03  d E =-.137523E-02
       N       E                     dE             d eps       ncg     rms          rms(c)
DAV:   1    -0.140283387253E+03   -0.42096E-03   -0.12736E-01  6376   0.155E+00    0.447E-02
DAV:   2    -0.140283624151E+03   -0.23690E-03   -0.26564E-03  7360   0.209E-01    0.261E-02
DAV:   3    -0.140283607966E+03    0.16186E-04   -0.30217E-05  5816   0.296E-02    0.183E-02
DAV:   4    -0.140283593331E+03    0.14635E-04   -0.55917E-05  6816   0.497E-02    0.688E-03
DAV:   5    -0.140283594623E+03   -0.12922E-05   -0.29065E-05  5672   0.236E-02    0.927E-03
DAV:   6    -0.140283594147E+03    0.47663E-06   -0.21268E-06  3936   0.599E-03
  21 F= -.14028359E+03 E0= -.14028080E+03  d E =-.625975E-03
       N       E                     dE             d eps       ncg     rms          rms(c)
DAV:   1    -0.140282879486E+03    0.71514E-03   -0.11492E+00  6296   0.464E+00    0.134E-01
DAV:   2    -0.140285059358E+03   -0.21799E-02   -0.24211E-02  7344   0.628E-01    0.769E-02
DAV:   3    -0.140284921168E+03    0.13819E-03   -0.26008E-04  7456   0.853E-02    0.537E-02
DAV:   4    -0.140284799493E+03    0.12167E-03   -0.49388E-04  7480   0.145E-01    0.204E-02
DAV:   5    -0.140284811042E+03   -0.11549E-04   -0.23777E-04  7312   0.661E-02    0.271E-02
DAV:   6    -0.140284806673E+03    0.43699E-05   -0.13189E-05  4440   0.155E-02
  22 F= -.14028481E+03 E0= -.14028201E+03  d E =-.183850E-02
       N       E                     dE             d eps       ncg     rms          rms(c)
DAV:   1    -0.140276496926E+03    0.83141E-02   -0.45999E+00  6304   0.929E+00    0.269E-01
DAV:   2    -0.140285274487E+03   -0.87776E-02   -0.97718E-02  7344   0.126E+00    0.158E-01
DAV:   3    -0.140284698748E+03    0.57574E-03   -0.10667E-03  7440   0.172E-01    0.109E-01
DAV:   4    -0.140284189413E+03    0.50933E-03   -0.20298E-03  7544   0.292E-01    0.406E-02
DAV:   5    -0.140284234164E+03   -0.44751E-04   -0.95640E-04  7416   0.132E-01    0.526E-02
DAV:   6    -0.140284214913E+03    0.19251E-04   -0.59169E-05  6944   0.320E-02    0.414E-02
DAV:   7    -0.140284172989E+03    0.41924E-04   -0.21791E-04  7200   0.520E-02    0.191E-02
DAV:   8    -0.140284160419E+03    0.12570E-04   -0.30685E-05  6048   0.338E-02    0.194E-02
DAV:   9    -0.140284152003E+03    0.84163E-05   -0.46937E-05  6568   0.408E-02
  23 F= -.14028415E+03 E0= -.14028143E+03  d E =-.118383E-02
       N       E                     dE             d eps       ncg     rms          rms(c)
DAV:   1    -0.140281927321E+03    0.22331E-02   -0.18306E+00  6312   0.585E+00    0.171E-01
DAV:   2    -0.140285412913E+03   -0.34856E-02   -0.38758E-02  7344   0.797E-01    0.976E-02
DAV:   3    -0.140285203333E+03    0.20958E-03   -0.46080E-04  7432   0.111E-01    0.696E-02
DAV:   4    -0.140285038455E+03    0.16488E-03   -0.76060E-04  7480   0.166E-01    0.285E-02
DAV:   5    -0.140285048477E+03   -0.10022E-04   -0.30423E-04  7360   0.791E-02    0.345E-02
DAV:   6    -0.140285040879E+03    0.75973E-05   -0.28668E-05  5776   0.227E-02
  24 F= -.14028504E+03 E0= -.14028227E+03  d E =-.207271E-02
       N       E                     dE             d eps       ncg     rms          rms(c)
DAV:   1    -0.140285395626E+03   -0.34715E-03   -0.30065E-01  6464   0.247E+00    0.704E-02
DAV:   2    -0.140286009582E+03   -0.61396E-03   -0.68583E-03  7152   0.342E-01    0.403E-02
DAV:   3    -0.140285975762E+03    0.33820E-04   -0.12167E-04  7496   0.511E-02    0.288E-02
DAV:   4    -0.140285953082E+03    0.22681E-04   -0.52502E-05  6976   0.383E-02    0.138E-02
DAV:   5    -0.140285942801E+03    0.10281E-04   -0.23804E-05  5288   0.307E-02    0.691E-03
DAV:   6    -0.140285941264E+03    0.15362E-05   -0.15874E-05  4384   0.210E-02
  25 F= -.14028594E+03 E0= -.14028316E+03  d E =-.900385E-03
       N       E                     dE             d eps       ncg     rms          rms(c)
DAV:   1    -0.140282464747E+03    0.34781E-02   -0.27097E+00  6440   0.741E+00    0.212E-01
DAV:   2    -0.140288279608E+03   -0.58149E-02   -0.62797E-02  7152   0.102E+00    0.120E-01
DAV:   3    -0.140287962850E+03    0.31676E-03   -0.64444E-04  7568   0.124E-01    0.822E-02
DAV:   4    -0.140287736302E+03    0.22655E-03   -0.68946E-04  7352   0.146E-01    0.275E-02
DAV:   5    -0.140287724801E+03    0.11501E-04   -0.25896E-04  7264   0.717E-02    0.214E-02
DAV:   6    -0.140287712611E+03    0.12191E-04   -0.71779E-05  7056   0.396E-02    0.108E-02
DAV:   7    -0.140287701070E+03    0.11541E-04   -0.14405E-05  4816   0.245E-02    0.909E-03
DAV:   8    -0.140287690798E+03    0.10271E-04   -0.53378E-06  4288   0.228E-02    0.607E-03
DAV:   9    -0.140287671068E+03    0.19730E-04   -0.19340E-05  5456   0.560E-02    0.594E-03
DAV:  10    -0.140287661469E+03    0.95993E-05   -0.20368E-05  5184   0.357E-02
  26 F= -.14028766E+03 E0= -.14028487E+03  d E =-.262059E-02
       N       E                     dE             d eps       ncg     rms          rms(c)
DAV:   1    -0.140265593640E+03    0.22077E-01   -0.10826E+01  6408   0.148E+01    0.420E-01
DAV:   2    -0.140288913751E+03   -0.23320E-01   -0.25151E-01  7152   0.204E+00    0.246E-01
DAV:   3    -0.140287613478E+03    0.13003E-02   -0.25808E-03  7568   0.249E-01    0.166E-01
DAV:   4    -0.140286704496E+03    0.90898E-03   -0.24711E-03  7360   0.278E-01    0.546E-02
DAV:   5    -0.140286666574E+03    0.37922E-04   -0.10046E-03  7248   0.140E-01    0.370E-02
DAV:   6    -0.140286626715E+03    0.39858E-04   -0.22241E-04  7360   0.692E-02    0.205E-02
DAV:   7    -0.140286586632E+03    0.40083E-04   -0.36675E-05  5912   0.431E-02    0.139E-02
DAV:   8    -0.140286550172E+03    0.36461E-04   -0.25922E-05  5752   0.450E-02    0.722E-03
DAV:   9    -0.140286481652E+03    0.68519E-04   -0.42905E-05  6896   0.959E-02    0.110E-02
DAV:  10    -0.140286440066E+03    0.41586E-04   -0.40190E-05  6432   0.644E-02    0.117E-02
DAV:  11    -0.140286377027E+03    0.63039E-04   -0.76678E-05  7904   0.124E-01    0.155E-02
DAV:  12    -0.140286322135E+03    0.54893E-04   -0.10129E-04  8224   0.172E-01    0.114E-02
DAV:  13    -0.140286324870E+03   -0.27351E-05   -0.15432E-04  6664   0.725E-02    0.618E-03
DAV:  14    -0.140286327079E+03   -0.22097E-05   -0.40983E-05  5984   0.281E-02
  27 F= -.14028633E+03 E0= -.14028353E+03  d E =-.128620E-02
       N       E                     dE             d eps       ncg     rms          rms(c)
DAV:   1    -0.140278050737E+03    0.82741E-02   -0.50991E+00  6384   0.102E+01    0.293E-01
DAV:   2    -0.140288995197E+03   -0.10944E-01   -0.11870E-01  7136   0.141E+00    0.164E-01
DAV:   3    -0.140288429138E+03    0.56606E-03   -0.13433E-03  7552   0.174E-01    0.116E-01
DAV:   4    -0.140288029989E+03    0.39915E-03   -0.13835E-03  7288   0.197E-01    0.422E-02
DAV:   5    -0.140288001998E+03    0.27991E-04   -0.45131E-04  7320   0.984E-02    0.349E-02
DAV:   6    -0.140287981165E+03    0.20833E-04   -0.24709E-04  7344   0.772E-02    0.162E-02
DAV:   7    -0.140287972655E+03    0.85101E-05   -0.41423E-05  6208   0.310E-02
  28 F= -.14028797E+03 E0= -.14028517E+03  d E =-.293178E-02
       N       E                     dE             d eps       ncg     rms          rms(c)
DAV:   1    -0.140288058338E+03   -0.77174E-04   -0.48347E-01  6296   0.315E+00    0.951E-02
DAV:   2    -0.140289108348E+03   -0.10500E-02   -0.11766E-02  7144   0.447E-01    0.517E-02
DAV:   3    -0.140289059432E+03    0.48916E-04   -0.21078E-04  7456   0.658E-02    0.380E-02
DAV:   4    -0.140289013067E+03    0.46365E-04   -0.12437E-04  7184   0.556E-02    0.175E-02
DAV:   5    -0.140288986418E+03    0.26649E-04   -0.35268E-05  6296   0.504E-02    0.169E-02
DAV:   6    -0.140288965566E+03    0.20851E-04   -0.32842E-05  6048   0.478E-02    0.107E-02
DAV:   7    -0.140288958202E+03    0.73642E-05   -0.27384E-05  5352   0.267E-02
  29 F= -.14028896E+03 E0= -.14028615E+03  d E =-.985548E-03
       N       E                     dE             d eps       ncg     rms          rms(c)
DAV:   1    -0.140286500949E+03    0.24646E-02   -0.15171E+00  6288   0.559E+00    0.168E-01
DAV:   2    -0.140289864158E+03   -0.33632E-02   -0.37119E-02  7128   0.790E-01    0.900E-02
DAV:   3    -0.140289721542E+03    0.14262E-03   -0.60945E-04  7464   0.112E-01    0.653E-02
DAV:   4    -0.140289598277E+03    0.12327E-03   -0.35816E-04  7248   0.939E-02    0.293E-02
DAV:   5    -0.140289540902E+03    0.57375E-04   -0.99072E-05  7520   0.813E-02    0.267E-02
DAV:   6    -0.140289495403E+03    0.45499E-04   -0.10440E-04  7704   0.798E-02    0.149E-02
DAV:   7    -0.140289481890E+03    0.13513E-04   -0.58385E-05  6376   0.380E-02    0.130E-02
DAV:   8    -0.140289440589E+03    0.41301E-04   -0.12986E-05  4592   0.440E-02    0.102E-02
DAV:   9    -0.140289344077E+03    0.96513E-04   -0.95261E-05  8160   0.145E-01    0.248E-02
DAV:  10    -0.140289233828E+03    0.11025E-03   -0.47671E-04 10328   0.337E-01    0.257E-02
DAV:  11    -0.140289252787E+03   -0.18959E-04   -0.39054E-04  7024   0.989E-02    0.326E-02
DAV:  12    -0.140289250786E+03    0.20005E-05   -0.51877E-05  6016   0.297E-02
  30 F= -.14028925E+03 E0= -.14028646E+03  d E =-.127813E-02
       N       E                     dE             d eps       ncg     rms          rms(c)
DAV:   1    -0.140288480970E+03    0.77182E-03   -0.95104E-01  6352   0.438E+00    0.125E-01
DAV:   2    -0.140290427958E+03   -0.19470E-02   -0.21485E-02  7192   0.604E-01    0.734E-02
DAV:   3    -0.140290320946E+03    0.10701E-03   -0.26276E-04  7456   0.767E-02    0.495E-02
DAV:   4    -0.140290246465E+03    0.74482E-04   -0.17506E-04  7200   0.642E-02    0.194E-02
DAV:   5    -0.140290238734E+03    0.77312E-05   -0.72309E-05  7104   0.477E-02    0.129E-02
DAV:   6    -0.140290238450E+03    0.28404E-06   -0.50270E-05  6504   0.363E-02
  31 F= -.14029024E+03 E0= -.14028751E+03  d E =-.987663E-03
       N       E                     dE             d eps       ncg     rms          rms(c)
DAV:   1    -0.140286482955E+03    0.37558E-02   -0.22029E+00  6352   0.668E+00    0.191E-01
DAV:   2    -0.140291158245E+03   -0.46753E-02   -0.50120E-02  7168   0.914E-01    0.105E-01
DAV:   3    -0.140290913016E+03    0.24523E-03   -0.42852E-04  7456   0.102E-01    0.707E-02
DAV:   4    -0.140290721417E+03    0.19160E-03   -0.50059E-04  7352   0.135E-01    0.196E-02
DAV:   5    -0.140290727012E+03   -0.55951E-05   -0.25763E-04  7248   0.760E-02    0.185E-02
DAV:   6    -0.140290720675E+03    0.63371E-05   -0.38706E-05  6128   0.288E-02
  32 F= -.14029072E+03 E0= -.14028809E+03  d E =-.146989E-02
       N       E                     dE             d eps       ncg     rms          rms(c)
DAV:   1    -0.140288908422E+03    0.18186E-02   -0.17538E+00  6408   0.597E+00    0.179E-01
DAV:   2    -0.140292917614E+03   -0.40092E-02   -0.42732E-02  7088   0.833E-01    0.101E-01
DAV:   3    -0.140292687859E+03    0.22976E-03   -0.34404E-04  7448   0.958E-02    0.682E-02
DAV:   4    -0.140292485971E+03    0.20189E-03   -0.49273E-04  7328   0.140E-01    0.232E-02
DAV:   5    -0.140292460403E+03    0.25568E-04   -0.21031E-04  7264   0.781E-02    0.203E-02
DAV:   6    -0.140292431001E+03    0.29402E-04   -0.58247E-05  6712   0.429E-02    0.980E-03
DAV:   7    -0.140292380257E+03    0.50745E-04   -0.64495E-06  4736   0.544E-02    0.669E-03
DAV:   8    -0.140292294169E+03    0.86087E-04   -0.25641E-05  5776   0.982E-02    0.733E-03
DAV:   9    -0.140292171313E+03    0.12286E-03   -0.94453E-05  8280   0.181E-01    0.986E-03
DAV:  10    -0.140292051344E+03    0.11997E-03   -0.29398E-04  9680   0.346E-01    0.618E-03
DAV:  11    -0.140292085777E+03   -0.34433E-04   -0.41686E-04  7184   0.893E-02    0.102E-02
DAV:  12    -0.140292089198E+03   -0.34212E-05   -0.53529E-05  6392   0.295E-02
  33 F= -.14029209E+03 E0= -.14028957E+03  d E =-.136852E-02
       N       E                     dE             d eps       ncg     rms          rms(c)
DAV:   1    -0.140291858277E+03    0.22750E-03   -0.18153E-01  6448   0.192E+00    0.541E-02
DAV:   2    -0.140292273371E+03   -0.41509E-03   -0.44289E-03  7080   0.267E-01    0.332E-02
DAV:   3    -0.140292254565E+03    0.18806E-04   -0.45830E-05  7064   0.317E-02    0.232E-02
DAV:   4    -0.140292240781E+03    0.13784E-04   -0.33132E-05  6080   0.351E-02    0.956E-03
DAV:   5    -0.140292238306E+03    0.24748E-05   -0.16955E-05  4536   0.221E-02    0.590E-03
DAV:   6    -0.140292236582E+03    0.17239E-05   -0.55561E-06  4112   0.135E-02
  34 F= -.14029224E+03 E0= -.14028976E+03  d E =-.151591E-02
       N       E                     dE             d eps       ncg     rms          rms(c)
DAV:   1    -0.140292783505E+03   -0.54520E-03   -0.50179E-01  6456   0.319E+00    0.971E-02
DAV:   2    -0.140293819850E+03   -0.10363E-02   -0.12393E-02  7232   0.456E-01    0.618E-02
DAV:   3    -0.140293732220E+03    0.87630E-04   -0.20719E-04  7408   0.821E-02    0.454E-02
DAV:   4    -0.140293662496E+03    0.69724E-04   -0.16023E-04  7088   0.760E-02    0.207E-02
DAV:   5    -0.140293629334E+03    0.33162E-04   -0.60094E-05  6984   0.667E-02    0.132E-02
DAV:   6    -0.140293605068E+03    0.24266E-04   -0.40530E-05  6184   0.611E-02    0.594E-03
DAV:   7    -0.140293585604E+03    0.19464E-04   -0.17948E-05  4936   0.518E-02    0.646E-03
DAV:   8    -0.140293554588E+03    0.31016E-04   -0.13703E-05  4992   0.736E-02    0.420E-03
DAV:   9    -0.140293526179E+03    0.28409E-04   -0.32933E-05  6312   0.849E-02    0.616E-03
DAV:  10    -0.140293509741E+03    0.16438E-04   -0.27480E-05  5824   0.725E-02    0.626E-03
DAV:  11    -0.140293492595E+03    0.17147E-04   -0.40272E-05  6864   0.110E-01    0.524E-03
DAV:  12    -0.140293495907E+03   -0.33121E-05   -0.77313E-05  6480   0.542E-02
  35 F= -.14029350E+03 E0= -.14029111E+03  d E =-.125932E-02
       N       E                     dE             d eps       ncg     rms          rms(c)
DAV:   1    -0.140293499763E+03   -0.71681E-05   -0.80711E-03  6656   0.405E-01    0.160E-02
DAV:   2    -0.140293515505E+03   -0.15743E-04   -0.21916E-04  7216   0.598E-02    0.815E-03
DAV:   3    -0.140293513436E+03    0.20699E-05   -0.29017E-06  4088   0.114E-02    0.550E-03
DAV:   4    -0.140293511435E+03    0.20007E-05   -0.37763E-06  4288   0.151E-02    0.210E-03
DAV:   5    -0.140293510600E+03    0.83498E-06   -0.24683E-06  4088   0.984E-03    0.196E-03
DAV:   6    -0.140293509536E+03    0.10641E-05   -0.55028E-07  4072   0.799E-03
  36 F= -.14029351E+03 E0= -.14029114E+03  d E =-.127295E-02
       N       E                     dE             d eps       ncg     rms          rms(c)
DAV:   1    -0.140293839103E+03   -0.32850E-03   -0.43489E-02  6320   0.949E-01    0.326E-02
DAV:   2    -0.140293925275E+03   -0.86172E-04   -0.12463E-03  7288   0.152E-01    0.231E-02
DAV:   3    -0.140293910782E+03    0.14493E-04   -0.30598E-05  6352   0.290E-02    0.176E-02
DAV:   4    -0.140293887407E+03    0.23375E-04   -0.68018E-05  7032   0.456E-02    0.104E-02
DAV:   5    -0.140293879467E+03    0.79403E-05   -0.16514E-05  4656   0.256E-02    0.123E-02
DAV:   6    -0.140293871918E+03    0.75486E-05   -0.12041E-05  4464   0.206E-02
  37 F= -.14029387E+03 E0= -.14029153E+03  d E =-.362383E-03
