   7   7   0   0
  0.9062524E+02  0.2985060E-09  0.2985054E-09  0.8220741E-08  0.5000000E-15
  1.000000000000000E-004
  CAR 
 unknown system                          
      3.51568006    -13.38366848  301     -1.91373226      1.00000000
    -13.384  0.0000E+00  0.0000E+00
    -13.327  0.0000E+00  0.0000E+00
    -13.271  0.0000E+00  0.0000E+00
    -13.215  0.0000E+00  0.0000E+00
    -13.158  0.0000E+00  0.0000E+00
    -13.102  0.0000E+00  0.0000E+00
    -13.046  0.0000E+00  0.0000E+00
    -12.989  0.0000E+00  0.0000E+00
    -12.933  0.0000E+00  0.0000E+00
    -12.877  0.1577E-13  0.8882E-15
    -12.820  0.7229E-09  0.4072E-10
    -12.764  0.2797E-05  0.1576E-06
    -12.708  0.9561E-03  0.5402E-04
    -12.651  0.3167E-01  0.1838E-02
    -12.595  0.1195E+00  0.8571E-02
    -12.539  0.1345E+00  0.1615E-01
    -12.482  0.5864E+00  0.4918E-01
    -12.426  0.5362E+00  0.7939E-01
    -12.370  0.6057E-01  0.8280E-01
    -12.313  0.7599E-02  0.8323E-01
    -12.257  0.2127E+00  0.9521E-01
    -12.201  0.7863E+00  0.1395E+00
    -12.144  0.5239E+00  0.1690E+00
    -12.088  0.8712E+00  0.2181E+00
    -12.032  0.1231E+01  0.2874E+00
    -11.975  0.3453E+00  0.3069E+00
    -11.919  0.1475E-01  0.3077E+00
    -11.863  0.3615E-01  0.3097E+00
    -11.806  0.4471E+00  0.3349E+00
    -11.750  0.8833E+00  0.3847E+00
    -11.694  0.1654E+01  0.4779E+00
    -11.637  0.1667E+01  0.5718E+00
    -11.581  0.3474E+00  0.5913E+00
    -11.525  0.9072E-01  0.5965E+00
    -11.468  0.3975E+00  0.6188E+00
    -11.412  0.9724E+00  0.6736E+00
    -11.356  0.9912E+00  0.7295E+00
    -11.299  0.9051E+00  0.7804E+00
    -11.243  0.1453E+01  0.8623E+00
    -11.187  0.4731E+00  0.8889E+00
    -11.130  0.4893E+00  0.9165E+00
    -11.074  0.1053E+01  0.9758E+00
    -11.018  0.1656E+01  0.1069E+01
    -10.961  0.1843E+01  0.1173E+01
    -10.905  0.1728E+01  0.1270E+01
    -10.849  0.7254E+00  0.1311E+01
    -10.792  0.4314E-01  0.1314E+01
    -10.736  0.1920E-02  0.1314E+01
    -10.680  0.1287E+00  0.1321E+01
    -10.623  0.1321E+01  0.1395E+01
    -10.567  0.2347E+01  0.1528E+01
    -10.511  0.2167E+01  0.1650E+01
    -10.454  0.2241E+01  0.1776E+01
    -10.398  0.8529E+00  0.1824E+01
    -10.342  0.6460E+00  0.1860E+01
    -10.285  0.5409E+00  0.1891E+01
    -10.229  0.3516E+00  0.1911E+01
    -10.173  0.1384E+01  0.1989E+01
    -10.116  0.2342E+01  0.2121E+01
    -10.060  0.1717E+01  0.2217E+01
    -10.004  0.6487E+00  0.2254E+01
     -9.947  0.8347E+00  0.2301E+01
     -9.891  0.1679E+01  0.2395E+01
     -9.835  0.2159E+01  0.2517E+01
     -9.778  0.1542E+01  0.2604E+01
     -9.722  0.1779E+01  0.2704E+01
     -9.666  0.2450E+01  0.2842E+01
     -9.609  0.7706E+00  0.2885E+01
     -9.553  0.6312E-01  0.2889E+01
     -9.497  0.6743E+00  0.2927E+01
     -9.440  0.2614E+01  0.3074E+01
     -9.384  0.2281E+01  0.3203E+01
     -9.328  0.1087E+01  0.3264E+01
     -9.271  0.8214E+00  0.3310E+01
     -9.215  0.2658E+00  0.3325E+01
     -9.159  0.2040E+00  0.3337E+01
     -9.103  0.1126E+01  0.3400E+01
     -9.046  0.2975E+01  0.3568E+01
     -8.990  0.3496E+01  0.3765E+01
     -8.934  0.3086E+01  0.3938E+01
     -8.877  0.2528E+01  0.4081E+01
     -8.821  0.1275E+01  0.4153E+01
     -8.765  0.1439E+01  0.4234E+01
     -8.708  0.8190E+00  0.4280E+01
     -8.652  0.9780E+00  0.4335E+01
     -8.596  0.2304E+01  0.4465E+01
     -8.539  0.3655E+01  0.4671E+01
     -8.483  0.2281E+01  0.4799E+01
     -8.427  0.3045E+00  0.4816E+01
     -8.370  0.3292E-01  0.4818E+01
     -8.314  0.5471E+00  0.4849E+01
     -8.258  0.1501E+01  0.4934E+01
     -8.201  0.1709E+01  0.5030E+01
     -8.145  0.2558E+01  0.5174E+01
     -8.089  0.1263E+01  0.5245E+01
     -8.032  0.9013E+00  0.5296E+01
     -7.976  0.1308E+01  0.5369E+01
     -7.920  0.3089E+01  0.5543E+01
     -7.863  0.4901E+01  0.5820E+01
     -7.807  0.2607E+01  0.5966E+01
     -7.751  0.1718E+01  0.6063E+01
     -7.694  0.8752E+00  0.6112E+01
     -7.638  0.1035E+01  0.6171E+01
     -7.582  0.2425E+01  0.6307E+01
     -7.525  0.3427E+01  0.6500E+01
     -7.469  0.2120E+01  0.6620E+01
     -7.413  0.2246E+01  0.6746E+01
     -7.356  0.2079E+01  0.6863E+01
     -7.300  0.4180E+00  0.6887E+01
     -7.244  0.1221E+00  0.6894E+01
     -7.187  0.1417E+01  0.6974E+01
     -7.131  0.3559E+01  0.7174E+01
     -7.075  0.3057E+01  0.7346E+01
     -7.018  0.2900E+01  0.7510E+01
     -6.962  0.2574E+01  0.7655E+01
     -6.906  0.1360E+01  0.7731E+01
     -6.849  0.1284E+01  0.7804E+01
     -6.793  0.1467E+01  0.7886E+01
     -6.737  0.2958E+01  0.8053E+01
     -6.680  0.2376E+01  0.8187E+01
     -6.624  0.2537E+01  0.8330E+01
     -6.568  0.1298E+01  0.8403E+01
     -6.511  0.2148E+01  0.8524E+01
     -6.455  0.1903E+01  0.8631E+01
     -6.399  0.1672E+01  0.8725E+01
     -6.342  0.2983E+01  0.8893E+01
     -6.286  0.2475E+01  0.9033E+01
     -6.230  0.1388E+01  0.9111E+01
     -6.173  0.9123E+00  0.9162E+01
     -6.117  0.3150E+00  0.9180E+01
     -6.061  0.1612E+01  0.9271E+01
     -6.004  0.4113E+01  0.9502E+01
     -5.948  0.5209E+01  0.9796E+01
     -5.892  0.5813E+01  0.1012E+02
     -5.835  0.3535E+01  0.1032E+02
     -5.779  0.9099E+00  0.1037E+02
     -5.723  0.1974E+00  0.1038E+02
     -5.666  0.1511E+01  0.1047E+02
     -5.610  0.2846E+01  0.1063E+02
     -5.554  0.2299E+01  0.1076E+02
     -5.497  0.2977E+01  0.1093E+02
     -5.441  0.2420E+01  0.1106E+02
     -5.385  0.3172E+01  0.1124E+02
     -5.328  0.3116E+01  0.1142E+02
     -5.272  0.3089E+01  0.1159E+02
     -5.216  0.2247E+01  0.1172E+02
     -5.159  0.1367E+01  0.1180E+02
     -5.103  0.8418E+00  0.1184E+02
     -5.047  0.5068E+00  0.1187E+02
     -4.990  0.7031E+00  0.1191E+02
     -4.934  0.3626E+01  0.1212E+02
     -4.878  0.4395E+01  0.1236E+02
     -4.821  0.3295E+01  0.1255E+02
     -4.765  0.2794E+01  0.1271E+02
     -4.709  0.1798E+01  0.1281E+02
     -4.652  0.2796E+01  0.1296E+02
     -4.596  0.3818E+01  0.1318E+02
     -4.540  0.5205E+01  0.1347E+02
     -4.483  0.3662E+01  0.1368E+02
     -4.427  0.4178E+01  0.1391E+02
     -4.371  0.3053E+01  0.1409E+02
     -4.314  0.1922E+01  0.1419E+02
     -4.258  0.6786E+00  0.1423E+02
     -4.202  0.2061E+01  0.1435E+02
     -4.145  0.3726E+01  0.1456E+02
     -4.089  0.3036E+01  0.1473E+02
     -4.033  0.2911E+01  0.1489E+02
     -3.976  0.3430E+01  0.1509E+02
     -3.920  0.2932E+01  0.1525E+02
     -3.864  0.1055E+01  0.1531E+02
     -3.807  0.1794E+01  0.1541E+02
     -3.751  0.3654E+01  0.1562E+02
     -3.695  0.4382E+01  0.1587E+02
     -3.638  0.1203E+01  0.1593E+02
     -3.582  0.1202E+01  0.1600E+02
     -3.526  0.2319E+01  0.1613E+02
     -3.469  0.3104E+01  0.1631E+02
     -3.413  0.2533E+01  0.1645E+02
     -3.357  0.2531E+01  0.1659E+02
     -3.300  0.2962E+01  0.1676E+02
     -3.244  0.1560E+01  0.1685E+02
     -3.188  0.1279E+01  0.1692E+02
     -3.131  0.3887E+01  0.1714E+02
     -3.075  0.4674E+01  0.1740E+02
     -3.019  0.4130E+01  0.1763E+02
     -2.962  0.4100E+01  0.1786E+02
     -2.906  0.1039E+01  0.1792E+02
     -2.850  0.3632E+00  0.1794E+02
     -2.793  0.1966E+01  0.1805E+02
     -2.737  0.3561E+01  0.1825E+02
     -2.681  0.5514E+01  0.1857E+02
     -2.624  0.5191E+01  0.1886E+02
     -2.568  0.2028E+01  0.1897E+02
     -2.512  0.2633E+01  0.1912E+02
     -2.455  0.3391E+01  0.1931E+02
     -2.399  0.4481E+01  0.1956E+02
     -2.343  0.3199E+01  0.1974E+02
     -2.286  0.7478E+00  0.1979E+02
     -2.230  0.8296E+00  0.1983E+02
     -2.174  0.1711E+01  0.1993E+02
     -2.117  0.3996E+01  0.2015E+02
     -2.061  0.6736E+01  0.2053E+02
     -2.005  0.5773E+01  0.2086E+02
     -1.948  0.1651E+01  0.2095E+02
     -1.892  0.1533E+01  0.2104E+02
     -1.836  0.2019E+01  0.2115E+02
     -1.779  0.1335E+01  0.2123E+02
     -1.723  0.2063E+01  0.2134E+02
     -1.667  0.2033E+01  0.2146E+02
     -1.610  0.2448E+01  0.2160E+02
     -1.554  0.6479E+01  0.2196E+02
     -1.498  0.5756E+01  0.2229E+02
     -1.441  0.2736E+01  0.2244E+02
     -1.385  0.1091E+01  0.2250E+02
     -1.329  0.3189E+01  0.2268E+02
     -1.272  0.4230E+01  0.2292E+02
     -1.216  0.3521E+01  0.2312E+02
     -1.160  0.2113E+01  0.2324E+02
     -1.103  0.1266E+01  0.2331E+02
     -1.047  0.2724E+01  0.2346E+02
     -0.991  0.3108E+01  0.2364E+02
     -0.934  0.3585E+01  0.2384E+02
     -0.878  0.3269E+01  0.2402E+02
     -0.822  0.3412E+01  0.2421E+02
     -0.765  0.2212E+01  0.2434E+02
     -0.709  0.2222E+01  0.2446E+02
     -0.653  0.2676E+01  0.2461E+02
     -0.596  0.3235E+01  0.2480E+02
     -0.540  0.2764E+01  0.2495E+02
     -0.484  0.2110E+01  0.2507E+02
     -0.428  0.9088E+00  0.2512E+02
     -0.371  0.1781E+01  0.2522E+02
     -0.315  0.3114E+01  0.2540E+02
     -0.259  0.2953E+01  0.2556E+02
     -0.202  0.2589E+01  0.2571E+02
     -0.146  0.2560E+01  0.2586E+02
     -0.090  0.1831E+01  0.2596E+02
     -0.033  0.2682E+01  0.2611E+02
      0.023  0.3227E+01  0.2629E+02
      0.079  0.1572E+01  0.2638E+02
      0.136  0.4471E+00  0.2640E+02
      0.192  0.1932E+01  0.2651E+02
      0.248  0.2641E+01  0.2666E+02
      0.305  0.1214E+01  0.2673E+02
      0.361  0.2533E+00  0.2675E+02
      0.417  0.9205E-02  0.2675E+02
      0.474  0.2194E-01  0.2675E+02
      0.530  0.7033E+00  0.2679E+02
      0.586  0.3322E+01  0.2697E+02
      0.643  0.3091E+01  0.2715E+02
      0.699  0.1234E+01  0.2722E+02
      0.755  0.7638E+00  0.2726E+02
      0.812  0.8368E+00  0.2731E+02
      0.868  0.1133E+01  0.2737E+02
      0.924  0.1858E+01  0.2748E+02
      0.981  0.2373E+01  0.2761E+02
      1.037  0.3412E+01  0.2780E+02
      1.093  0.3977E+01  0.2803E+02
      1.150  0.2382E+01  0.2816E+02
      1.206  0.3069E+00  0.2818E+02
      1.262  0.5644E-02  0.2818E+02
      1.319  0.4369E-01  0.2818E+02
      1.375  0.4770E+00  0.2821E+02
      1.431  0.6327E+00  0.2824E+02
      1.488  0.1048E+00  0.2825E+02
      1.544  0.1958E-02  0.2825E+02
      1.600  0.1858E-01  0.2825E+02
      1.657  0.4861E+00  0.2828E+02
      1.713  0.1512E+01  0.2836E+02
      1.769  0.1241E+01  0.2843E+02
      1.826  0.2986E+01  0.2860E+02
      1.882  0.3127E+01  0.2878E+02
      1.938  0.1570E+01  0.2886E+02
      1.995  0.5652E+00  0.2890E+02
      2.051  0.1759E+00  0.2891E+02
      2.107  0.8155E+00  0.2895E+02
      2.164  0.1245E+01  0.2902E+02
      2.220  0.7572E+00  0.2907E+02
      2.276  0.5610E+00  0.2910E+02
      2.333  0.1864E+01  0.2920E+02
      2.389  0.2880E+01  0.2936E+02
      2.445  0.1129E+01  0.2943E+02
      2.502  0.1590E+00  0.2944E+02
      2.558  0.1447E+01  0.2952E+02
      2.614  0.3974E+01  0.2974E+02
      2.671  0.2123E+01  0.2986E+02
      2.727  0.1191E+01  0.2993E+02
      2.783  0.1048E+01  0.2999E+02
      2.840  0.2088E+00  0.3000E+02
      2.896  0.5842E-02  0.3000E+02
      2.952  0.1684E-04  0.3000E+02
      3.009  0.4340E-08  0.3000E+02
      3.065  0.9460E-13  0.3000E+02
      3.121  0.0000E+00  0.3000E+02
      3.178  0.0000E+00  0.3000E+02
      3.234  0.0000E+00  0.3000E+02
      3.290  0.0000E+00  0.3000E+02
      3.347  0.0000E+00  0.3000E+02
      3.403  0.0000E+00  0.3000E+02
      3.459  0.0000E+00  0.3000E+02
      3.516  0.0000E+00  0.3000E+02
