 vasp.5.4.4.18Apr17-6-g9f103f2a35 (build Nov 15 2019 10:10:58) complex          
  
 executed on             LinuxIFC date 2024.09.28  15:02:56
 running on   20 total cores
 distrk:  each k-point on   20 cores,    1 groups
 distr:  one band on NCORES_PER_BAND=   4 cores,    5 groups


--------------------------------------------------------------------------------------------------------


 INCAR:
 POTCAR:   PAW_PBE Al 04Jan2001                   
 POTCAR:   PAW_PBE Al 04Jan2001                   
   VRHFIN =Al: s2p1                                                             
   LEXCH  = PE                                                                  
   EATOM  =    53.5387 eV,    3.9350 Ry                                         
                                                                                
   TITEL  = PAW_PBE Al 04Jan2001                                                
   LULTRA =        F    use ultrasoft PP ?                                      
   IUNSCR =        1    unscreen: 0-lin 1-nonlin 2-no                           
   RPACOR =    1.500    partial core radius                                     
   POMASS =   26.982; ZVAL   =    3.000    mass and valenz                      
   RCORE  =    1.900    outmost cutoff radius                                   
   RWIGS  =    2.650; RWIGS  =    1.402    wigner-seitz radius (au A)           
   ENMAX  =  240.300; ENMIN  =  180.225 eV                                      
   ICORE  =        2    local potential                                         
   LCOR   =        T    correct aug charges                                     
   LPAW   =        T    paw PP                                                  
   EAUG   =  291.052                                                            
   DEXC   =    -.041                                                            
   RMAX   =    2.974    core radius for proj-oper                               
   RAUG   =    1.300    factor for augmentation sphere                          
   RDEP   =    1.966    radius for radial grids                                 
   QCUT   =   -4.203; QGAM   =    8.405    optimization parameters              
                                                                                
   Description                                                                  
     l     E      TYP  RCUT    TYP  RCUT                                        
     0   .000     23  1.900                                                     
     0   .000     23  1.900                                                     
     1   .000     23  1.900                                                     
     1  1.000     23  1.900                                                     
     2   .000      7  1.900                                                     
  local pseudopotential read in
  partial core-charges read in
  atomic valenz-charges read in
  non local Contribution for L=           0  read in
    real space projection operators read in
  non local Contribution for L=           0  read in
    real space projection operators read in
  non local Contribution for L=           1  read in
    real space projection operators read in
  non local Contribution for L=           1  read in
    real space projection operators read in
    PAW grid and wavefunctions read in
 
   number of l-projection  operators is LMAX  =           4
   number of lm-projection operators is LMMAX =           8
 
 PAW_PBE Al 04Jan2001                   :
 energy of atom  1       EATOM=  -53.5387
 kinetic energy error for atom=    0.0004 (will be added to EATOM!!)
 
 
 POSCAR: Layer (20)                              
  positions in direct lattice
  velocities in cartesian coordinates
 exchange correlation table for  LEXCH =        8
   RHO(1)=    0.500       N(1)  =     2000
   RHO(2)=  100.500       N(2)  =     4000

 VTST: version 3.2, (02/03/18)

 CHAIN: initializing optimizer
 
 OPT: Using VASP Conjugate-Gradient optimizer
 CHAIN: Read ICHAIN            0
 
 POSCAR: Layer (20)                              
  positions in direct lattice
  velocities in cartesian coordinates
 


--------------------------------------------------------------------------------------------------------


 ion  position               nearest neighbor table
   1  0.000  0.000  0.234-   6 2.83   6 2.83   6 2.83
   2  0.000  0.000  0.315-   4 2.80   4 2.80   4 2.80   7 2.81   7 2.81   7 2.81
   3  0.000  0.000  0.396-   5 2.80   5 2.80   5 2.80
   4  0.667  0.333  0.288-   2 2.80   2 2.80   2 2.80   6 2.81   6 2.81   6 2.81
   5  0.667  0.333  0.369-   3 2.80   3 2.80   3 2.80   7 2.81   7 2.81   7 2.81
   6  0.333  0.667  0.261-   4 2.81   4 2.81   4 2.81   1 2.83   1 2.83   1 2.83
   7  0.333  0.667  0.342-   5 2.81   5 2.81   5 2.81   2 2.81   2 2.81   2 2.81
 
  LATTYP: Found a hexagonal cell.
 ALAT       =     2.9850604079
 C/A-ratio  =    27.5396116811
  
  Lattice vectors:
  
 A1 = (   2.5851399813,  -1.4925270234,   0.0000000000)
 A2 = (   0.0000000000,   2.9850540469,   0.0000000000)
 A3 = (  -0.0000000000,   0.0000000000,  82.2074044782)


Analysis of symmetry for initial positions (statically):
=====================================================================
 Subroutine PRICEL returns:
 Original cell was already a primitive cell.
 

 Routine SETGRP: Setting up the symmetry group for a 
 hexagonal supercell.


 Subroutine GETGRP returns: Found  6 space group operations
 (whereof  6 operations were pure point group operations)
 out of a pool of 24 trial point group operations.


The static configuration has the point symmetry C_3v.


Analysis of symmetry for dynamics (positions and initial velocities):
=====================================================================
 Subroutine PRICEL returns:
 Original cell was already a primitive cell.
 

 Routine SETGRP: Setting up the symmetry group for a 
 hexagonal supercell.


 Subroutine GETGRP returns: Found  6 space group operations
 (whereof  6 operations were pure point group operations)
 out of a pool of 24 trial point group operations.


The dynamic configuration has the point symmetry C_3v.


Analysis of constrained symmetry for selective dynamics:
=====================================================================
 Subroutine PRICEL returns:
 Original cell was already a primitive cell.
 

 Routine SETGRP: Setting up the symmetry group for a 
 hexagonal supercell.


 Subroutine GETGRP returns: Found  6 space group operations
 (whereof  6 operations were pure point group operations)
 out of a pool of 24 trial point group operations.


The constrained configuration has the point symmetry C_3v.


 Subroutine INISYM returns: Found  6 space group operations
 (whereof  6 operations are pure point group operations),
 and found     1 'primitive' translations

 
 
 KPOINTS: K-Spacing Value to Generate K-Mesh: 0.02

Automatic generation of k-mesh.
Space group operators:
 irot       det(A)        alpha          n_x          n_y          n_z        tau_x        tau_y        tau_z
    1     1.000000     0.000000     1.000000     0.000000     0.000000     0.000000     0.000000     0.000000
    2     1.000000   120.000000     0.000000    -0.000000    -1.000000     0.000000     0.000000     0.000000
    3     1.000000   120.000000    -0.000000    -0.000000     1.000000     0.000000     0.000000     0.000000
    4    -1.000000   180.000000     0.866025    -0.500001     0.000000     0.000000     0.000000     0.000000
    5    -1.000000   180.000000     0.000000     1.000000     0.000000     0.000000     0.000000     0.000000
    6    -1.000000   180.000000     0.866025     0.500001     0.000000     0.000000     0.000000     0.000000
 
 Subroutine IBZKPT returns following result:
 ===========================================
 
 Found     21 irreducible k-points:
 
 Following reciprocal coordinates:
            Coordinates               Weight
  0.000000  0.000000  0.000000      1.000000
  0.076923  0.000000  0.000000      6.000000
  0.153846  0.000000  0.000000      6.000000
  0.230769  0.000000  0.000000      6.000000
  0.307692  0.000000  0.000000      6.000000
  0.384615  0.000000  0.000000      6.000000
  0.461538  0.000000  0.000000      6.000000
  0.076923  0.076923  0.000000      6.000000
  0.153846  0.076923  0.000000     12.000000
  0.230769  0.076923  0.000000     12.000000
  0.307692  0.076923  0.000000     12.000000
  0.384615  0.076923  0.000000     12.000000
  0.461538  0.076923  0.000000      6.000000
  0.153846  0.153846  0.000000      6.000000
  0.230769  0.153846  0.000000     12.000000
  0.307692  0.153846  0.000000     12.000000
  0.384615  0.153846  0.000000     12.000000
  0.230769  0.230769  0.000000      6.000000
  0.307692  0.230769  0.000000     12.000000
  0.384615  0.230769  0.000000      6.000000
  0.307692  0.307692  0.000000      6.000000
 
 Following cartesian coordinates:
            Coordinates               Weight
  0.000000  0.000000  0.000000      1.000000
  0.029756  0.000000  0.000000      6.000000
  0.059512  0.000000  0.000000      6.000000
  0.089268  0.000000  0.000000      6.000000
  0.119023  0.000000  0.000000      6.000000
  0.148779  0.000000  0.000000      6.000000
  0.178535  0.000000  0.000000      6.000000
  0.044634  0.025769  0.000000      6.000000
  0.074390  0.025769  0.000000     12.000000
  0.104146  0.025769  0.000000     12.000000
  0.133901  0.025769  0.000000     12.000000
  0.163657  0.025769  0.000000     12.000000
  0.193413  0.025769  0.000000      6.000000
  0.089268  0.051539  0.000000      6.000000
  0.119023  0.051539  0.000000     12.000000
  0.148779  0.051539  0.000000     12.000000
  0.178535  0.051539  0.000000     12.000000
  0.133901  0.077308  0.000000      6.000000
  0.163657  0.077308  0.000000     12.000000
  0.193413  0.077308  0.000000      6.000000
  0.178535  0.103078  0.000000      6.000000
 


--------------------------------------------------------------------------------------------------------




 Dimension of arrays:
   k-points           NKPTS =     21   k-points in BZ     NKDIM =     21   number of bands    NBANDS=     15
   number of dos      NEDOS =    301   number of ions     NIONS =      7
   non local maximal  LDIM  =      4   non local SUM 2l+1 LMDIM =      8
   total plane-waves  NPLWV = 368640
   max r-space proj   IRMAX =      1   max aug-charges    IRDMAX= 181110
   dimension x,y,z NGX =    24 NGY =   24 NGZ =  640
   dimension x,y,z NGXF=    48 NGYF=   48 NGZF= 1280
   support grid    NGXF=    96 NGYF=   96 NGZF= 2560
   ions per type =               7
   NGX,Y,Z   is equivalent  to a cutoff of  13.37, 13.37, 12.94 a.u.
   NGXF,Y,Z  is equivalent  to a cutoff of  26.73, 26.73, 25.89 a.u.

 Based on PREC, I would recommend the following setting:
   dimension x,y,z NGX =    24 NGY =   24 NGZ =  576

 SYSTEM =  unknown system                          
 POSCAR =  Layer (20)                              

 Startparameter for this run:
   NWRITE =      2    write-flag & timer
   PREC   = accura    normal or accurate (medium, high low for compatibility)
   ISTART =      0    job   : 0-new  1-cont  2-samecut
   ICHARG =      2    charge: 1-file 2-atom 10-const
   ISPIN  =      1    spin polarized calculation?
   LNONCOLLINEAR =      F non collinear calculations
   LSORBIT =      F    spin-orbit coupling
   INIWAV =      1    electr: 0-lowe 1-rand  2-diag
   LASPH  =      F    aspherical Exc in radial PAW
   METAGGA=      F    non-selfconsistent MetaGGA calc.

 Electronic Relaxation 1
   ENCUT  =  450.0 eV  33.07 Ry    5.75 a.u.   5.16  5.16142.19*2*pi/ulx,y,z
   ENINI  =  450.0     initial cutoff
   ENAUG  =  291.1 eV  augmentation charge cutoff
   NELM   =    100;   NELMIN=  6; NELMDL=  0     # of ELM steps 
   EDIFF  = 0.1E-05   stopping-criterion for ELM
   LREAL  =      F    real-space projection
   NLSPLINE    = F    spline interpolate recip. space projectors
   LCOMPAT=      F    compatible to vasp.4.4
   GGA_COMPAT  = T    GGA compatible to vasp.4.4-vasp.4.6
   LMAXPAW     = -100 max onsite density
   LMAXMIX     =    2 max onsite mixed and CHGCAR
   VOSKOWN=      0    Vosko Wilk Nusair interpolation
   ROPT   =    0.00000
 Ionic relaxation
   EDIFFG = -.2E-01   stopping-criterion for IOM
   NSW    =      0    number of steps for IOM
   NBLOCK =      1;   KBLOCK =      1    inner block; outer block 
   IBRION =     -1    ionic relax: 0-MD 1-quasi-New 2-CG
   NFREE  =      1    steps in history (QN), initial steepest desc. (CG)
   ISIF   =      4    stress and relaxation
   IWAVPR =     10    prediction:  0-non 1-charg 2-wave 3-comb
   ISYM   =      2    0-nonsym 1-usesym 2-fastsym
   LCORR  =      T    Harris-Foulkes like correction to forces

   POTIM  = 0.5000    time-step for ionic-motion
   TEIN   =    0.0    initial temperature
   TEBEG  =    0.0;   TEEND  =   0.0 temperature during run
   SMASS  =  -3.00    Nose mass-parameter (am)
   estimated Nose-frequenzy (Omega)   =  0.10E-29 period in steps =****** mass=  -0.204E-27a.u.
   SCALEE = 1.0000    scale energy and forces
   NPACO  =    256;   APACO  = 16.0  distance and # of slots for P.C.
   PSTRESS=    0.0 pullay stress

  Mass of Ions in am
   POMASS =  26.98
  Ionic Valenz
   ZVAL   =   3.00
  Atomic Wigner-Seitz radii
   RWIGS  =  -1.00
  virtual crystal weights 
   VCA    =   1.00
   NELECT =      21.0000    total number of electrons
   NUPDOWN=      -1.0000    fix difference up-down

 DOS related values:
   EMIN   =  10.00;   EMAX   =-10.00  energy-range for DOS
   EFERMI =   0.00
   ISMEAR =     0;   SIGMA  =   0.05  broadening in eV -4-tet -1-fermi 0-gaus

 Electronic relaxation 2 (details)
   IALGO  =     38    algorithm
   LDIAG  =      T    sub-space diagonalisation (order eigenvalues)
   LSUBROT=      F    optimize rotation matrix (better conditioning)
   TURBO    =      0    0=normal 1=particle mesh
   IRESTART =      0    0=no restart 2=restart with 2 vectors
   NREBOOT  =      0    no. of reboots
   NMIN     =      0    reboot dimension
   EREF     =   0.00    reference energy to select bands
   IMIX   =      4    mixing-type and parameters
     AMIX     =   0.40;   BMIX     =  1.00
     AMIX_MAG =   1.60;   BMIX_MAG =  1.00
     AMIN     =   0.01
     WC   =   100.;   INIMIX=   1;  MIXPRE=   1;  MAXMIX= -45

 Intra band minimization:
   WEIMIN = 0.0000     energy-eigenvalue tresh-hold
   EBREAK =  0.17E-07  absolut break condition
   DEPER  =   0.30     relativ break condition  

   TIME   =   0.40     timestep for ELM

  volume/ion in A,a.u.               =      90.63       611.57
  Fermi-wavevector in a.u.,A,eV,Ry     =   0.525653  0.993339  3.759435  0.276311
  Thomas-Fermi vector in A             =   1.545978
 
 Write flags
   LWAVE        =      F    write WAVECAR
   LDOWNSAMPLE  =      F    k-point downsampling of WAVECAR
   LCHARG       =      T    write CHGCAR
   LVTOT        =      F    write LOCPOT, total local potential
   LVHAR        =      F    write LOCPOT, Hartree potential only
   LELF         =      F    write electronic localiz. function (ELF)
   LORBIT       =      0    0 simple, 1 ext, 2 COOP (PROOUT), +10 PAW based schemes


 Dipole corrections
   LMONO  =      F    monopole corrections only (constant potential shift)
   LDIPOL =      F    correct potential (dipole corrections)
   IDIPOL =      0    1-x, 2-y, 3-z, 4-all directions 
   EPSILON=  1.0000000 bulk dielectric constant

 Exchange correlation treatment:
   GGA     =    --    GGA type
   LEXCH   =     8    internal setting for exchange type
   VOSKOWN=      0    Vosko Wilk Nusair interpolation
   LHFCALC =     F    Hartree Fock is set to
   LHFONE  =     F    Hartree Fock one center treatment
   AEXX    =    0.0000 exact exchange contribution

 Linear response parameters
   LEPSILON=     F    determine dielectric tensor
   LRPA    =     F    only Hartree local field effects (RPA)
   LNABLA  =     F    use nabla operator in PAW spheres
   LVEL    =     F    velocity operator in full k-point grid
   LINTERFAST=   F  fast interpolation
   KINTER  =     0    interpolate to denser k-point grid
   CSHIFT  =0.1000    complex shift for real part using Kramers Kronig
   OMEGAMAX=  -1.0    maximum frequency
   DEG_THRESHOLD= 0.2000000E-02 threshold for treating states as degnerate
   RTIME   =   -0.100 relaxation time in fs
  (WPLASMAI=    0.000 imaginary part of plasma frequency in eV, 0.658/RTIME)
   DFIELD  = 0.0000000 0.0000000 0.0000000 field for delta impulse in time
 
 Orbital magnetization related:
   ORBITALMAG=     F  switch on orbital magnetization
   LCHIMAG   =     F  perturbation theory with respect to B field
   DQ        =  0.001000  dq finite difference perturbation B field
   LLRAUG    =     F  two centre corrections for induced B field



--------------------------------------------------------------------------------------------------------


 Static calculation
 charge density and potential will be updated during run
 non-spin polarized calculation
 Variant of blocked Davidson
 Davidson routine will perform the subspace rotation
 perform sub-space diagonalisation
    after iterative eigenvector-optimisation
 modified Broyden-mixing scheme, WC =      100.0
 initial mixing is a Kerker type mixing with AMIX =  0.4000 and BMIX =      1.0000
 Hartree-type preconditioning will be used
 using additional bands            4
 reciprocal scheme for non local part
 use partial core corrections
 calculate Harris-corrections to forces 
   (improved forces if not selfconsistent)
 use gradient corrections 
 use of overlap-Matrix (Vanderbilt PP)
 Gauss-broadening in eV      SIGMA  =   0.05


--------------------------------------------------------------------------------------------------------


  energy-cutoff  :      450.00
  volume of cell :      634.38
      direct lattice vectors                 reciprocal lattice vectors
     2.585139981 -1.492527023  0.000000000     0.386826248  0.000000000  0.000000000
     0.000000000  2.985054047  0.000000000     0.193413124  0.335002310  0.000000000
    -0.000000000  0.000000000 82.207404478    -0.000000000  0.000000000  0.012164354

  length of vectors
     2.985060408  2.985054047 82.207404478     0.386826248  0.386827072  0.012164354


 
 k-points in units of 2pi/SCALE and weight: K-Spacing Value to Generate K-Mesh: 0.02
   0.00000000  0.00000000  0.00000000       0.006
   0.02975587  0.00000000  0.00000000       0.036
   0.05951173  0.00000000  0.00000000       0.036
   0.08926760  0.00000000  0.00000000       0.036
   0.11902346  0.00000000  0.00000000       0.036
   0.14877933  0.00000000  0.00000000       0.036
   0.17853519  0.00000000  0.00000000       0.036
   0.04463380  0.02576941  0.00000000       0.036
   0.07438966  0.02576941  0.00000000       0.071
   0.10414553  0.02576941  0.00000000       0.071
   0.13390139  0.02576941  0.00000000       0.071
   0.16365726  0.02576941  0.00000000       0.071
   0.19341312  0.02576941  0.00000000       0.036
   0.08926760  0.05153882  0.00000000       0.036
   0.11902346  0.05153882  0.00000000       0.071
   0.14877933  0.05153882  0.00000000       0.071
   0.17853519  0.05153882  0.00000000       0.071
   0.13390139  0.07730823  0.00000000       0.036
   0.16365726  0.07730823  0.00000000       0.071
   0.19341312  0.07730823  0.00000000       0.036
   0.17853519  0.10307763  0.00000000       0.036
 
 k-points in reciprocal lattice and weights: K-Spacing Value to Generate K-Mesh: 0.02
   0.00000000  0.00000000  0.00000000       0.006
   0.07692308  0.00000000  0.00000000       0.036
   0.15384615  0.00000000  0.00000000       0.036
   0.23076923  0.00000000  0.00000000       0.036
   0.30769231  0.00000000  0.00000000       0.036
   0.38461538  0.00000000  0.00000000       0.036
   0.46153846  0.00000000  0.00000000       0.036
   0.07692308  0.07692308  0.00000000       0.036
   0.15384615  0.07692308  0.00000000       0.071
   0.23076923  0.07692308  0.00000000       0.071
   0.30769231  0.07692308  0.00000000       0.071
   0.38461538  0.07692308  0.00000000       0.071
   0.46153846  0.07692308  0.00000000       0.036
   0.15384615  0.15384615  0.00000000       0.036
   0.23076923  0.15384615  0.00000000       0.071
   0.30769231  0.15384615  0.00000000       0.071
   0.38461538  0.15384615  0.00000000       0.071
   0.23076923  0.23076923  0.00000000       0.036
   0.30769231  0.23076923  0.00000000       0.071
   0.38461538  0.23076923  0.00000000       0.036
   0.30769231  0.30769231  0.00000000       0.036
 
 position of ions in fractional coordinates (direct lattice) 
   0.00000000  0.00000000  0.23354639
   0.00000000  0.00000000  0.31470488
   0.00000000  0.00000000  0.39560960
   0.66666700  0.33333300  0.28786106
   0.66666700  0.33333300  0.36877845
   0.33333300  0.66666700  0.26091276
   0.33333300  0.66666700  0.34175005
 
 position of ions in cartesian coordinates  (Angst):
  -0.00000000  0.00000000 19.19924271
  -0.00000000  0.00000000 25.87107177
  -0.00000000  0.00000000 32.52203833
   1.72342752 -0.00000149 23.66431019
   1.72342752 -0.00000149 30.31631924
   0.86171247  1.49252852 21.44896113
   0.86171247  1.49252852 28.09438421
 


--------------------------------------------------------------------------------------------------------


 k-point  1 :   0.0000 0.0000 0.0000  plane waves:   13689
 k-point  2 :   0.0769 0.0000 0.0000  plane waves:   13653
 k-point  3 :   0.1538 0.0000 0.0000  plane waves:   13595
 k-point  4 :   0.2308 0.0000 0.0000  plane waves:   13741
 k-point  5 :   0.3077 0.0000 0.0000  plane waves:   13793
 k-point  6 :   0.3846 0.0000 0.0000  plane waves:   13799
 k-point  7 :   0.4615 0.0000 0.0000  plane waves:   13821
 k-point  8 :   0.0769 0.0769 0.0000  plane waves:   13615
 k-point  9 :   0.1538 0.0769 0.0000  plane waves:   13679
 k-point 10 :   0.2308 0.0769 0.0000  plane waves:   13754
 k-point 11 :   0.3077 0.0769 0.0000  plane waves:   13809
 k-point 12 :   0.3846 0.0769 0.0000  plane waves:   13815
 k-point 13 :   0.4615 0.0769 0.0000  plane waves:   13796
 k-point 14 :   0.1538 0.1538 0.0000  plane waves:   13705
 k-point 15 :   0.2308 0.1538 0.0000  plane waves:   13750
 k-point 16 :   0.3077 0.1538 0.0000  plane waves:   13799
 k-point 17 :   0.3846 0.1538 0.0000  plane waves:   13783
 k-point 18 :   0.2308 0.2308 0.0000  plane waves:   13759
 k-point 19 :   0.3077 0.2308 0.0000  plane waves:   13759
 k-point 20 :   0.3846 0.2308 0.0000  plane waves:   13735
 k-point 21 :   0.3077 0.3077 0.0000  plane waves:   13713

 maximum and minimum number of plane-waves per node :      3479     3374

 maximum number of plane-waves:     13821
 maximum index in each direction: 
   IXMAX=    5   IYMAX=    5   IZMAX=  142
   IXMIN=   -5   IYMIN=   -5   IZMIN= -142


 parallel 3D FFT for wavefunctions:
    minimum data exchange during FFTs selected (reduces bandwidth)
 parallel 3D FFT for charge:
    minimum data exchange during FFTs selected (reduces bandwidth)


 total amount of memory used by VASP MPI-rank0    76346. kBytes
=======================================================================

   base      :      30000. kBytes
   nonl-proj :       5008. kBytes
   fftplans  :      25300. kBytes
   grid      :      12545. kBytes
   one-center:          6. kBytes
   wavefun   :       3487. kBytes
 
     INWAV:  cpu time    0.0000: real time    0.0001
 Broyden mixing: mesh for mixing (old mesh)
   NGX = 11   NGY = 11   NGZ =285
  (NGX  = 48   NGY  = 48   NGZ  =***)
  gives a total of  34485 points

 initial charge density was supplied:
 charge density of overlapping atoms calculated
 number of electron      21.0000000 magnetization 
 keeping initial charge density in first step


--------------------------------------------------------------------------------------------------------


 Maximum index for augmentation-charges         9382 (set IRDMAX)


--------------------------------------------------------------------------------------------------------


 First call to EWALD:  gamma=   0.206
 Maximum number of real-space cells 8x 8x 1
 Maximum number of reciprocal cells 1x 1x22

    FEWALD:  cpu time    0.0013: real time    0.0013


--------------------------------------- Iteration      1(   1)  ---------------------------------------


    POTLOK:  cpu time    0.1440: real time    0.1443
    SETDIJ:  cpu time    0.1211: real time    0.1215
     EDDAV:  cpu time    1.4424: real time    1.4730
       DOS:  cpu time    0.0007: real time    0.0016
    --------------------------------------------
      LOOP:  cpu time    1.7082: real time    1.7405

 eigenvalue-minimisations  :   720
 total energy-change (2. order) : 0.9821290E+02  (-0.5660867E+03)
 number of electron      21.0000000 magnetization 
 augmentation part       21.0000000 magnetization 

 Free energy of the ion-electron system (eV)
  ---------------------------------------------------
  alpha Z        PSCENC =        -0.25943859
  Ewald energy   TEWEN  =     22903.89334769
  -Hartree energ DENC   =    -23171.16173442
  -exchange      EXHF   =         0.00000000
  -V(xc)+E(xc)   XCENC  =      -185.05086478
  PAW double counting   =       248.87978439      -25.19288129
  entropy T*S    EENTRO =        -0.00560720
  eigenvalues    EBANDS =       -47.65755523
  atomic energy  EATOM  =       374.76784764
  Solvation  Ediel_sol  =         0.00000000
  ---------------------------------------------------
  free energy    TOTEN  =        98.21289820 eV

  energy without entropy =       98.21850540  energy(sigma->0) =       98.21570180


--------------------------------------------------------------------------------------------------------




--------------------------------------- Iteration      1(   2)  ---------------------------------------


     EDDAV:  cpu time    1.7599: real time    1.9505
       DOS:  cpu time    0.0006: real time    0.0006
    --------------------------------------------
      LOOP:  cpu time    1.7605: real time    1.9510

 eigenvalue-minimisations  :   930
 total energy-change (2. order) :-0.1198112E+03  (-0.1004251E+03)
 number of electron      21.0000000 magnetization 
 augmentation part       21.0000000 magnetization 

 Free energy of the ion-electron system (eV)
  ---------------------------------------------------
  alpha Z        PSCENC =        -0.25943859
  Ewald energy   TEWEN  =     22903.89334769
  -Hartree energ DENC   =    -23171.16173442
  -exchange      EXHF   =         0.00000000
  -V(xc)+E(xc)   XCENC  =      -185.05086478
  PAW double counting   =       248.87978439      -25.19288129
  entropy T*S    EENTRO =        -0.00239621
  eigenvalues    EBANDS =      -167.47201037
  atomic energy  EATOM  =       374.76784764
  Solvation  Ediel_sol  =         0.00000000
  ---------------------------------------------------
  free energy    TOTEN  =       -21.59834595 eV

  energy without entropy =      -21.59594974  energy(sigma->0) =      -21.59714785


--------------------------------------------------------------------------------------------------------




--------------------------------------- Iteration      1(   3)  ---------------------------------------


     EDDAV:  cpu time    1.5895: real time    1.7088
       DOS:  cpu time    0.0017: real time    0.0017
    --------------------------------------------
      LOOP:  cpu time    1.5912: real time    1.7105

 eigenvalue-minimisations  :   850
 total energy-change (2. order) :-0.4249636E+01  (-0.4183632E+01)
 number of electron      21.0000000 magnetization 
 augmentation part       21.0000000 magnetization 

 Free energy of the ion-electron system (eV)
  ---------------------------------------------------
  alpha Z        PSCENC =        -0.25943859
  Ewald energy   TEWEN  =     22903.89334769
  -Hartree energ DENC   =    -23171.16173442
  -exchange      EXHF   =         0.00000000
  -V(xc)+E(xc)   XCENC  =      -185.05086478
  PAW double counting   =       248.87978439      -25.19288129
  entropy T*S    EENTRO =        -0.00182026
  eigenvalues    EBANDS =      -171.72222239
  atomic energy  EATOM  =       374.76784764
  Solvation  Ediel_sol  =         0.00000000
  ---------------------------------------------------
  free energy    TOTEN  =       -25.84798202 eV

  energy without entropy =      -25.84616176  energy(sigma->0) =      -25.84707189


--------------------------------------------------------------------------------------------------------




--------------------------------------- Iteration      1(   4)  ---------------------------------------


     EDDAV:  cpu time    1.7686: real time    1.8399
       DOS:  cpu time    0.0006: real time    0.0006
    --------------------------------------------
      LOOP:  cpu time    1.7691: real time    1.8404

 eigenvalue-minimisations  :  1000
 total energy-change (2. order) :-0.1456980E+00  (-0.1449019E+00)
 number of electron      21.0000000 magnetization 
 augmentation part       21.0000000 magnetization 

 Free energy of the ion-electron system (eV)
  ---------------------------------------------------
  alpha Z        PSCENC =        -0.25943859
  Ewald energy   TEWEN  =     22903.89334769
  -Hartree energ DENC   =    -23171.16173442
  -exchange      EXHF   =         0.00000000
  -V(xc)+E(xc)   XCENC  =      -185.05086478
  PAW double counting   =       248.87978439      -25.19288129
  entropy T*S    EENTRO =        -0.00188355
  eigenvalues    EBANDS =      -171.86785712
  atomic energy  EATOM  =       374.76784764
  Solvation  Ediel_sol  =         0.00000000
  ---------------------------------------------------
  free energy    TOTEN  =       -25.99368004 eV

  energy without entropy =      -25.99179649  energy(sigma->0) =      -25.99273826


--------------------------------------------------------------------------------------------------------




--------------------------------------- Iteration      1(   5)  ---------------------------------------


     EDDAV:  cpu time    1.9079: real time    1.9146
       DOS:  cpu time    0.0007: real time    0.0016
    CHARGE:  cpu time    0.2377: real time    0.2440
    MIXING:  cpu time    0.0201: real time    0.0203
    --------------------------------------------
      LOOP:  cpu time    2.1664: real time    2.1805

 eigenvalue-minimisations  :  1090
 total energy-change (2. order) :-0.6126011E-02  (-0.6122850E-02)
 number of electron      21.0000000 magnetization 
 augmentation part       -0.2789026 magnetization 

 Broyden mixing:
  rms(total) = 0.28576E+00    rms(broyden)= 0.28576E+00
  rms(prec ) = 0.30526E+00
  weight for this iteration     100.00

 Free energy of the ion-electron system (eV)
  ---------------------------------------------------
  alpha Z        PSCENC =        -0.25943859
  Ewald energy   TEWEN  =     22903.89334769
  -Hartree energ DENC   =    -23171.16173442
  -exchange      EXHF   =         0.00000000
  -V(xc)+E(xc)   XCENC  =      -185.05086478
  PAW double counting   =       248.87978439      -25.19288129
  entropy T*S    EENTRO =        -0.00188362
  eigenvalues    EBANDS =      -171.87398306
  atomic energy  EATOM  =       374.76784764
  Solvation  Ediel_sol  =         0.00000000
  ---------------------------------------------------
  free energy    TOTEN  =       -25.99980605 eV

  energy without entropy =      -25.99792243  energy(sigma->0) =      -25.99886424


--------------------------------------------------------------------------------------------------------




--------------------------------------- Iteration      1(   6)  ---------------------------------------


    POTLOK:  cpu time    0.1302: real time    0.1323
    SETDIJ:  cpu time    0.1210: real time    0.1215
     EDDAV:  cpu time    1.3706: real time    1.3752
       DOS:  cpu time    0.0013: real time    0.0013
    CHARGE:  cpu time    0.2396: real time    0.2398
    MIXING:  cpu time    0.0067: real time    0.0067
    --------------------------------------------
      LOOP:  cpu time    1.8694: real time    1.8770

 eigenvalue-minimisations  :   730
 total energy-change (2. order) : 0.5704740E+00  (-0.1767131E+00)
 number of electron      21.0000000 magnetization 
 augmentation part       -0.2809965 magnetization 

 Broyden mixing:
  rms(total) = 0.16049E+00    rms(broyden)= 0.16049E+00
  rms(prec ) = 0.16324E+00
  weight for this iteration     100.00

 eigenvalues of (default mixing * dielectric matrix)
  average eigenvalue GAMMA=   1.8254
  1.8254

 Free energy of the ion-electron system (eV)
  ---------------------------------------------------
  alpha Z        PSCENC =        -0.25943859
  Ewald energy   TEWEN  =     22903.89334769
  -Hartree energ DENC   =    -23176.71616583
  -exchange      EXHF   =         0.00000000
  -V(xc)+E(xc)   XCENC  =      -184.86692482
  PAW double counting   =       248.96051864      -25.28810870
  entropy T*S    EENTRO =        -0.00108965
  eigenvalues    EBANDS =      -165.91931847
  atomic energy  EATOM  =       374.76784764
  Solvation  Ediel_sol  =         0.00000000
  ---------------------------------------------------
  free energy    TOTEN  =       -25.42933210 eV

  energy without entropy =      -25.42824244  energy(sigma->0) =      -25.42878727


--------------------------------------------------------------------------------------------------------




--------------------------------------- Iteration      1(   7)  ---------------------------------------


    POTLOK:  cpu time    0.1178: real time    0.1188
    SETDIJ:  cpu time    0.1199: real time    0.1200
     EDDAV:  cpu time    1.4647: real time    1.4973
       DOS:  cpu time    0.0005: real time    0.0005
    CHARGE:  cpu time    0.2289: real time    0.2411
    MIXING:  cpu time    0.0043: real time    0.0046
    --------------------------------------------
      LOOP:  cpu time    1.9360: real time    1.9824

 eigenvalue-minimisations  :   780
 total energy-change (2. order) : 0.1179640E+00  (-0.2706268E-01)
 number of electron      21.0000000 magnetization 
 augmentation part       -0.2848488 magnetization 

 Broyden mixing:
  rms(total) = 0.72583E-01    rms(broyden)= 0.72583E-01
  rms(prec ) = 0.77480E-01
  weight for this iteration     100.00

 eigenvalues of (default mixing * dielectric matrix)
  average eigenvalue GAMMA=   1.6949
  1.0190  2.3707

 Free energy of the ion-electron system (eV)
  ---------------------------------------------------
  alpha Z        PSCENC =        -0.25943859
  Ewald energy   TEWEN  =     22903.89334769
  -Hartree energ DENC   =    -23179.43198588
  -exchange      EXHF   =         0.00000000
  -V(xc)+E(xc)   XCENC  =      -184.61491460
  PAW double counting   =       248.97185947      -25.31341538
  entropy T*S    EENTRO =        -0.00133241
  eigenvalues    EBANDS =      -163.32333608
  atomic energy  EATOM  =       374.76784764
  Solvation  Ediel_sol  =         0.00000000
  ---------------------------------------------------
  free energy    TOTEN  =       -25.31136813 eV

  energy without entropy =      -25.31003573  energy(sigma->0) =      -25.31070193


--------------------------------------------------------------------------------------------------------




--------------------------------------- Iteration      1(   8)  ---------------------------------------


    POTLOK:  cpu time    0.1127: real time    0.1175
    SETDIJ:  cpu time    0.1109: real time    0.1160
     EDDAV:  cpu time    1.5069: real time    1.5272
       DOS:  cpu time    0.0005: real time    0.0005
    CHARGE:  cpu time    0.2383: real time    0.2385
    MIXING:  cpu time    0.0071: real time    0.0071
    --------------------------------------------
      LOOP:  cpu time    1.9764: real time    2.0068

 eigenvalue-minimisations  :   860
 total energy-change (2. order) : 0.3907368E-01  (-0.1065266E-01)
 number of electron      21.0000000 magnetization 
 augmentation part       -0.2883676 magnetization 

 Broyden mixing:
  rms(total) = 0.25764E-01    rms(broyden)= 0.25764E-01
  rms(prec ) = 0.28853E-01
  weight for this iteration     100.00

 eigenvalues of (default mixing * dielectric matrix)
  average eigenvalue GAMMA=   1.6055
  2.4178  1.5893  0.8093

 Free energy of the ion-electron system (eV)
  ---------------------------------------------------
  alpha Z        PSCENC =        -0.25943859
  Ewald energy   TEWEN  =     22903.89334769
  -Hartree energ DENC   =    -23182.59349738
  -exchange      EXHF   =         0.00000000
  -V(xc)+E(xc)   XCENC  =      -184.41989870
  PAW double counting   =       249.03872080      -25.39569520
  entropy T*S    EENTRO =        -0.00150536
  eigenvalues    EBANDS =      -160.30217534
  atomic energy  EATOM  =       374.76784764
  Solvation  Ediel_sol  =         0.00000000
  ---------------------------------------------------
  free energy    TOTEN  =       -25.27229445 eV

  energy without entropy =      -25.27078908  energy(sigma->0) =      -25.27154177


--------------------------------------------------------------------------------------------------------




--------------------------------------- Iteration      1(   9)  ---------------------------------------


    POTLOK:  cpu time    0.1168: real time    0.1174
    SETDIJ:  cpu time    0.1212: real time    0.1237
     EDDAV:  cpu time    1.5457: real time    1.5543
       DOS:  cpu time    0.0010: real time    0.0005
    CHARGE:  cpu time    0.2338: real time    0.2456
    MIXING:  cpu time    0.0085: real time    0.0088
    --------------------------------------------
      LOOP:  cpu time    2.0279: real time    2.0502

 eigenvalue-minimisations  :   860
 total energy-change (2. order) : 0.6663345E-02  (-0.1903924E-02)
 number of electron      21.0000000 magnetization 
 augmentation part       -0.2892776 magnetization 

 Broyden mixing:
  rms(total) = 0.15180E-01    rms(broyden)= 0.15180E-01
  rms(prec ) = 0.20351E-01
  weight for this iteration     100.00

 eigenvalues of (default mixing * dielectric matrix)
  average eigenvalue GAMMA=   1.5907
  2.3874  2.2121  0.8816  0.8816

 Free energy of the ion-electron system (eV)
  ---------------------------------------------------
  alpha Z        PSCENC =        -0.25943859
  Ewald energy   TEWEN  =     22903.89334769
  -Hartree energ DENC   =    -23183.96549110
  -exchange      EXHF   =         0.00000000
  -V(xc)+E(xc)   XCENC  =      -184.37352312
  PAW double counting   =       249.11019667      -25.47478344
  entropy T*S    EENTRO =        -0.00144596
  eigenvalues    EBANDS =      -158.96234089
  atomic energy  EATOM  =       374.76784764
  Solvation  Ediel_sol  =         0.00000000
  ---------------------------------------------------
  free energy    TOTEN  =       -25.26563110 eV

  energy without entropy =      -25.26418514  energy(sigma->0) =      -25.26490812


--------------------------------------------------------------------------------------------------------




--------------------------------------- Iteration      1(  10)  ---------------------------------------


    POTLOK:  cpu time    0.1093: real time    0.1124
    SETDIJ:  cpu time    0.1042: real time    0.1090
     EDDAV:  cpu time    1.6127: real time    1.7214
       DOS:  cpu time    0.0006: real time    0.0006
    CHARGE:  cpu time    0.2884: real time    0.2892
    MIXING:  cpu time    0.0034: real time    0.0034
    --------------------------------------------
      LOOP:  cpu time    2.1177: real time    2.2361

 eigenvalue-minimisations  :   860
 total energy-change (2. order) : 0.4899972E-02  (-0.8296082E-03)
 number of electron      21.0000000 magnetization 
 augmentation part       -0.2894629 magnetization 

 Broyden mixing:
  rms(total) = 0.10415E-01    rms(broyden)= 0.10415E-01
  rms(prec ) = 0.15688E-01
  weight for this iteration     100.00

 eigenvalues of (default mixing * dielectric matrix)
  average eigenvalue GAMMA=   1.4971
  2.4539  2.4539  1.0413  0.9358  0.6004

 Free energy of the ion-electron system (eV)
  ---------------------------------------------------
  alpha Z        PSCENC =        -0.25943859
  Ewald energy   TEWEN  =     22903.89334769
  -Hartree energ DENC   =    -23185.23703633
  -exchange      EXHF   =         0.00000000
  -V(xc)+E(xc)   XCENC  =      -184.35111491
  PAW double counting   =       249.15851947      -25.52775724
  entropy T*S    EENTRO =        -0.00148714
  eigenvalues    EBANDS =      -157.70361171
  atomic energy  EATOM  =       374.76784764
  Solvation  Ediel_sol  =         0.00000000
  ---------------------------------------------------
  free energy    TOTEN  =       -25.26073113 eV

  energy without entropy =      -25.25924400  energy(sigma->0) =      -25.25998756


--------------------------------------------------------------------------------------------------------




--------------------------------------- Iteration      1(  11)  ---------------------------------------


    POTLOK:  cpu time    0.1116: real time    0.1145
    SETDIJ:  cpu time    0.1370: real time    0.1385
     EDDAV:  cpu time    1.4892: real time    1.5671
       DOS:  cpu time    0.0005: real time    0.0005
    CHARGE:  cpu time    0.2011: real time    0.2077
    MIXING:  cpu time    0.0058: real time    0.0060
    --------------------------------------------
      LOOP:  cpu time    1.9452: real time    2.0343

 eigenvalue-minimisations  :   800
 total energy-change (2. order) : 0.5107298E-02  (-0.2478125E-03)
 number of electron      21.0000000 magnetization 
 augmentation part       -0.2895128 magnetization 

 Broyden mixing:
  rms(total) = 0.80064E-02    rms(broyden)= 0.80064E-02
  rms(prec ) = 0.12611E-01
  weight for this iteration     100.00

 eigenvalues of (default mixing * dielectric matrix)
  average eigenvalue GAMMA=   1.5954
  2.9976  2.7318  1.3840  1.1202  0.7683  0.5708

 Free energy of the ion-electron system (eV)
  ---------------------------------------------------
  alpha Z        PSCENC =        -0.25943859
  Ewald energy   TEWEN  =     22903.89334769
  -Hartree energ DENC   =    -23186.83390006
  -exchange      EXHF   =         0.00000000
  -V(xc)+E(xc)   XCENC  =      -184.33332911
  PAW double counting   =       249.18479350      -25.55706359
  entropy T*S    EENTRO =        -0.00154059
  eigenvalues    EBANDS =      -156.11634072
  atomic energy  EATOM  =       374.76784764
  Solvation  Ediel_sol  =         0.00000000
  ---------------------------------------------------
  free energy    TOTEN  =       -25.25562383 eV

  energy without entropy =      -25.25408325  energy(sigma->0) =      -25.25485354


--------------------------------------------------------------------------------------------------------




--------------------------------------- Iteration      1(  12)  ---------------------------------------


    POTLOK:  cpu time    0.1098: real time    0.1142
    SETDIJ:  cpu time    0.1383: real time    0.1399
     EDDAV:  cpu time    1.4936: real time    1.4975
       DOS:  cpu time    0.0006: real time    0.0006
    CHARGE:  cpu time    0.2273: real time    0.2276
    MIXING:  cpu time    0.0058: real time    0.0058
    --------------------------------------------
      LOOP:  cpu time    1.9753: real time    1.9855

 eigenvalue-minimisations  :   720
 total energy-change (2. order) : 0.8141349E-02  (-0.5466050E-03)
 number of electron      21.0000000 magnetization 
 augmentation part       -0.2892839 magnetization 

 Broyden mixing:
  rms(total) = 0.56450E-02    rms(broyden)= 0.56450E-02
  rms(prec ) = 0.90632E-02
  weight for this iteration     100.00

 eigenvalues of (default mixing * dielectric matrix)
  average eigenvalue GAMMA=   1.7409
  3.8014  2.7119  1.6401  1.6401  1.0141  0.8196  0.5592

 Free energy of the ion-electron system (eV)
  ---------------------------------------------------
  alpha Z        PSCENC =        -0.25943859
  Ewald energy   TEWEN  =     22903.89334769
  -Hartree energ DENC   =    -23190.23117338
  -exchange      EXHF   =         0.00000000
  -V(xc)+E(xc)   XCENC  =      -184.30968147
  PAW double counting   =       249.16724320      -25.54014908
  entropy T*S    EENTRO =        -0.00168471
  eigenvalues    EBANDS =      -152.73379377
  atomic energy  EATOM  =       374.76784764
  Solvation  Ediel_sol  =         0.00000000
  ---------------------------------------------------
  free energy    TOTEN  =       -25.24748248 eV

  energy without entropy =      -25.24579777  energy(sigma->0) =      -25.24664013


--------------------------------------------------------------------------------------------------------




--------------------------------------- Iteration      1(  13)  ---------------------------------------


    POTLOK:  cpu time    0.1118: real time    0.1164
    SETDIJ:  cpu time    0.1113: real time    0.1169
     EDDAV:  cpu time    1.3960: real time    1.4484
       DOS:  cpu time    0.0026: real time    0.0026
    CHARGE:  cpu time    0.2340: real time    0.2345
    MIXING:  cpu time    0.0158: real time    0.0158
    --------------------------------------------
      LOOP:  cpu time    1.8715: real time    1.9347

 eigenvalue-minimisations  :   780
 total energy-change (2. order) : 0.3442343E-02  (-0.1514440E-03)
 number of electron      21.0000000 magnetization 
 augmentation part       -0.2891910 magnetization 

 Broyden mixing:
  rms(total) = 0.45223E-02    rms(broyden)= 0.45223E-02
  rms(prec ) = 0.75305E-02
  weight for this iteration     100.00

 eigenvalues of (default mixing * dielectric matrix)
  average eigenvalue GAMMA=   1.9609
  5.7159  2.7872  2.2451  1.4959  1.1046  0.9764  0.8016  0.5609

 Free energy of the ion-electron system (eV)
  ---------------------------------------------------
  alpha Z        PSCENC =        -0.25943859
  Ewald energy   TEWEN  =     22903.89334769
  -Hartree energ DENC   =    -23192.44563722
  -exchange      EXHF   =         0.00000000
  -V(xc)+E(xc)   XCENC  =      -184.29827338
  PAW double counting   =       249.12437815      -25.49486491
  entropy T*S    EENTRO =        -0.00175909
  eigenvalues    EBANDS =      -150.52964044
  atomic energy  EATOM  =       374.76784764
  Solvation  Ediel_sol  =         0.00000000
  ---------------------------------------------------
  free energy    TOTEN  =       -25.24404014 eV

  energy without entropy =      -25.24228106  energy(sigma->0) =      -25.24316060


--------------------------------------------------------------------------------------------------------




--------------------------------------- Iteration      1(  14)  ---------------------------------------


    POTLOK:  cpu time    0.1164: real time    0.1184
    SETDIJ:  cpu time    0.1153: real time    0.1198
     EDDAV:  cpu time    1.3195: real time    1.3378
       DOS:  cpu time    0.0005: real time    0.0005
    CHARGE:  cpu time    0.2427: real time    0.2453
    MIXING:  cpu time    0.0117: real time    0.0118
    --------------------------------------------
      LOOP:  cpu time    1.8061: real time    1.8336

 eigenvalue-minimisations  :   705
 total energy-change (2. order) : 0.3238194E-02  (-0.1238901E-03)
 number of electron      21.0000000 magnetization 
 augmentation part       -0.2890896 magnetization 

 Broyden mixing:
  rms(total) = 0.36334E-02    rms(broyden)= 0.36334E-02
  rms(prec ) = 0.61255E-02
  weight for this iteration     100.00

 eigenvalues of (default mixing * dielectric matrix)
  average eigenvalue GAMMA=   2.2019
  7.1613  3.5758  2.4973  1.8046  1.3295  1.0394  1.0394  0.8092  0.5608

 Free energy of the ion-electron system (eV)
  ---------------------------------------------------
  alpha Z        PSCENC =        -0.25943859
  Ewald energy   TEWEN  =     22903.89334769
  -Hartree energ DENC   =    -23195.01615724
  -exchange      EXHF   =         0.00000000
  -V(xc)+E(xc)   XCENC  =      -184.28966247
  PAW double counting   =       249.07135316      -25.43843353
  entropy T*S    EENTRO =        -0.00182176
  eigenvalues    EBANDS =      -147.96783685
  atomic energy  EATOM  =       374.76784764
  Solvation  Ediel_sol  =         0.00000000
  ---------------------------------------------------
  free energy    TOTEN  =       -25.24080195 eV

  energy without entropy =      -25.23898019  energy(sigma->0) =      -25.23989107


--------------------------------------------------------------------------------------------------------




--------------------------------------- Iteration      1(  15)  ---------------------------------------


    POTLOK:  cpu time    0.1170: real time    0.1172
    SETDIJ:  cpu time    0.1198: real time    0.1199
     EDDAV:  cpu time    1.3129: real time    1.5324
       DOS:  cpu time    0.0005: real time    0.0005
    CHARGE:  cpu time    0.2007: real time    0.2009
    MIXING:  cpu time    0.0053: real time    0.0053
    --------------------------------------------
      LOOP:  cpu time    1.7562: real time    1.9763

 eigenvalue-minimisations  :   725
 total energy-change (2. order) : 0.3443238E-02  (-0.1080628E-03)
 number of electron      21.0000000 magnetization 
 augmentation part       -0.2890414 magnetization 

 Broyden mixing:
  rms(total) = 0.29680E-02    rms(broyden)= 0.29680E-02
  rms(prec ) = 0.50317E-02
  weight for this iteration     100.00

 eigenvalues of (default mixing * dielectric matrix)
  average eigenvalue GAMMA=   2.3720
  8.1579  4.7212  2.5281  2.3163  1.3488  1.3488  0.5610  0.8020  0.9681  0.9681

 Free energy of the ion-electron system (eV)
  ---------------------------------------------------
  alpha Z        PSCENC =        -0.25943859
  Ewald energy   TEWEN  =     22903.89334769
  -Hartree energ DENC   =    -23197.69064906
  -exchange      EXHF   =         0.00000000
  -V(xc)+E(xc)   XCENC  =      -184.28204694
  PAW double counting   =       249.05217100      -25.41787362
  entropy T*S    EENTRO =        -0.00186897
  eigenvalues    EBANDS =      -145.29884785
  atomic energy  EATOM  =       374.76784764
  Solvation  Ediel_sol  =         0.00000000
  ---------------------------------------------------
  free energy    TOTEN  =       -25.23735871 eV

  energy without entropy =      -25.23548973  energy(sigma->0) =      -25.23642422


--------------------------------------------------------------------------------------------------------




--------------------------------------- Iteration      1(  16)  ---------------------------------------


    POTLOK:  cpu time    0.0993: real time    0.0996
    SETDIJ:  cpu time    0.1067: real time    0.1068
     EDDAV:  cpu time    1.2681: real time    1.2702
       DOS:  cpu time    0.0006: real time    0.0014
    CHARGE:  cpu time    0.2427: real time    0.2430
    MIXING:  cpu time    0.0107: real time    0.0107
    --------------------------------------------
      LOOP:  cpu time    1.7280: real time    1.7317

 eigenvalue-minimisations  :   700
 total energy-change (2. order) : 0.8006482E-03  (-0.3758335E-04)
 number of electron      21.0000000 magnetization 
 augmentation part       -0.2890253 magnetization 

 Broyden mixing:
  rms(total) = 0.24275E-02    rms(broyden)= 0.24275E-02
  rms(prec ) = 0.43130E-02
  weight for this iteration     100.00

 eigenvalues of (default mixing * dielectric matrix)
  average eigenvalue GAMMA=   2.6127
 10.5177  5.7634  2.6315  2.5271  1.5010  1.5010  0.5610  0.8080  0.9836  0.9836
  0.9621

 Free energy of the ion-electron system (eV)
  ---------------------------------------------------
  alpha Z        PSCENC =        -0.25943859
  Ewald energy   TEWEN  =     22903.89334769
  -Hartree energ DENC   =    -23199.83461488
  -exchange      EXHF   =         0.00000000
  -V(xc)+E(xc)   XCENC  =      -184.27737339
  PAW double counting   =       249.06992721      -25.43673542
  entropy T*S    EENTRO =        -0.00188363
  eigenvalues    EBANDS =      -143.15763469
  atomic energy  EATOM  =       374.76784764
  Solvation  Ediel_sol  =         0.00000000
  ---------------------------------------------------
  free energy    TOTEN  =       -25.23655806 eV

  energy without entropy =      -25.23467443  energy(sigma->0) =      -25.23561625


--------------------------------------------------------------------------------------------------------




--------------------------------------- Iteration      1(  17)  ---------------------------------------


    POTLOK:  cpu time    0.1152: real time    0.1169
    SETDIJ:  cpu time    0.1218: real time    0.1220
     EDDAV:  cpu time    1.3349: real time    1.3383
       DOS:  cpu time    0.0006: real time    0.0006
    CHARGE:  cpu time    0.2422: real time    0.2440
    MIXING:  cpu time    0.0202: real time    0.0202
    --------------------------------------------
      LOOP:  cpu time    1.8349: real time    1.8420

 eigenvalue-minimisations  :   695
 total energy-change (2. order) : 0.4447382E-03  (-0.5640309E-04)
 number of electron      21.0000000 magnetization 
 augmentation part       -0.2890030 magnetization 

 Broyden mixing:
  rms(total) = 0.19826E-02    rms(broyden)= 0.19826E-02
  rms(prec ) = 0.35334E-02
  weight for this iteration     100.00

 eigenvalues of (default mixing * dielectric matrix)
  average eigenvalue GAMMA=   2.8058
 12.8568  5.9007  2.8354  2.8354  1.7875  1.7875  1.2906  0.5611  1.0359  1.0359
  0.8039  0.9388

 Free energy of the ion-electron system (eV)
  ---------------------------------------------------
  alpha Z        PSCENC =        -0.25943859
  Ewald energy   TEWEN  =     22903.89334769
  -Hartree energ DENC   =    -23202.30051149
  -exchange      EXHF   =         0.00000000
  -V(xc)+E(xc)   XCENC  =      -184.27444632
  PAW double counting   =       249.08794397      -25.45607197
  entropy T*S    EENTRO =        -0.00191589
  eigenvalues    EBANDS =      -140.69286836
  atomic energy  EATOM  =       374.76784764
  Solvation  Ediel_sol  =         0.00000000
  ---------------------------------------------------
  free energy    TOTEN  =       -25.23611332 eV

  energy without entropy =      -25.23419743  energy(sigma->0) =      -25.23515537


--------------------------------------------------------------------------------------------------------




--------------------------------------- Iteration      1(  18)  ---------------------------------------


    POTLOK:  cpu time    0.1165: real time    0.1167
    SETDIJ:  cpu time    0.1243: real time    0.1244
     EDDAV:  cpu time    1.4746: real time    1.4769
       DOS:  cpu time    0.0005: real time    0.0005
    CHARGE:  cpu time    0.2402: real time    0.2405
    MIXING:  cpu time    0.0099: real time    0.0099
    --------------------------------------------
      LOOP:  cpu time    1.9659: real time    1.9689

 eigenvalue-minimisations  :   780
 total energy-change (2. order) : 0.5554430E-03  (-0.3672057E-04)
 number of electron      21.0000000 magnetization 
 augmentation part       -0.2889435 magnetization 

 Broyden mixing:
  rms(total) = 0.16681E-02    rms(broyden)= 0.16681E-02
  rms(prec ) = 0.28717E-02
  weight for this iteration     100.00

 eigenvalues of (default mixing * dielectric matrix)
  average eigenvalue GAMMA=   3.0165
 15.1683  6.9450  3.4470  2.7731  2.3067  1.8550  0.5611  1.2371  1.2371  0.8057
  0.9654  0.9654  0.9471

 Free energy of the ion-electron system (eV)
  ---------------------------------------------------
  alpha Z        PSCENC =        -0.25943859
  Ewald energy   TEWEN  =     22903.89334769
  -Hartree energ DENC   =    -23204.78130600
  -exchange      EXHF   =         0.00000000
  -V(xc)+E(xc)   XCENC  =      -184.27218444
  PAW double counting   =       249.06505658      -25.43212283
  entropy T*S    EENTRO =        -0.00197024
  eigenvalues    EBANDS =      -138.21478769
  atomic energy  EATOM  =       374.76784764
  Solvation  Ediel_sol  =         0.00000000
  ---------------------------------------------------
  free energy    TOTEN  =       -25.23555788 eV

  energy without entropy =      -25.23358764  energy(sigma->0) =      -25.23457276


--------------------------------------------------------------------------------------------------------




--------------------------------------- Iteration      1(  19)  ---------------------------------------


    POTLOK:  cpu time    0.1161: real time    0.1164
    SETDIJ:  cpu time    0.1361: real time    0.1365
     EDDAV:  cpu time    1.3766: real time    1.3809
       DOS:  cpu time    0.0006: real time    0.0006
    CHARGE:  cpu time    0.2368: real time    0.2371
    MIXING:  cpu time    0.0062: real time    0.0062
    --------------------------------------------
      LOOP:  cpu time    1.8724: real time    1.8776

 eigenvalue-minimisations  :   720
 total energy-change (2. order) : 0.2740618E-03  (-0.1543000E-04)
 number of electron      21.0000000 magnetization 
 augmentation part       -0.2889543 magnetization 

 Broyden mixing:
  rms(total) = 0.14319E-02    rms(broyden)= 0.14319E-02
  rms(prec ) = 0.25424E-02
  weight for this iteration     100.00

 eigenvalues of (default mixing * dielectric matrix)
  average eigenvalue GAMMA=   3.3070
 17.2036  8.8411  3.6490  3.5678  2.6530  1.9918  1.7748  0.5611  1.2041  1.2041
  0.8051  0.9738  0.9738  0.8956

 Free energy of the ion-electron system (eV)
  ---------------------------------------------------
  alpha Z        PSCENC =        -0.25943859
  Ewald energy   TEWEN  =     22903.89334769
  -Hartree energ DENC   =    -23206.19666774
  -exchange      EXHF   =         0.00000000
  -V(xc)+E(xc)   XCENC  =      -184.27185358
  PAW double counting   =       249.05094304      -25.41705036
  entropy T*S    EENTRO =        -0.00195269
  eigenvalues    EBANDS =      -136.80045923
  atomic energy  EATOM  =       374.76784764
  Solvation  Ediel_sol  =         0.00000000
  ---------------------------------------------------
  free energy    TOTEN  =       -25.23528382 eV

  energy without entropy =      -25.23333113  energy(sigma->0) =      -25.23430747


--------------------------------------------------------------------------------------------------------




--------------------------------------- Iteration      1(  20)  ---------------------------------------


    POTLOK:  cpu time    0.1194: real time    0.1196
    SETDIJ:  cpu time    0.1179: real time    0.1181
     EDDAV:  cpu time    1.4391: real time    1.4418
       DOS:  cpu time    0.0005: real time    0.0005
    CHARGE:  cpu time    0.2173: real time    0.2176
    MIXING:  cpu time    0.0075: real time    0.0075
    --------------------------------------------
      LOOP:  cpu time    1.9017: real time    1.9051

 eigenvalue-minimisations  :   755
 total energy-change (2. order) : 0.4008570E-03  (-0.1081788E-04)
 number of electron      21.0000000 magnetization 
 augmentation part       -0.2889440 magnetization 

 Broyden mixing:
  rms(total) = 0.12390E-02    rms(broyden)= 0.12390E-02
  rms(prec ) = 0.21093E-02
  weight for this iteration     100.00

 eigenvalues of (default mixing * dielectric matrix)
  average eigenvalue GAMMA=   3.4015
 19.6297  9.1489  4.5533  3.5307  2.5652  2.3058  1.5240  1.4298  0.5611  1.0639
  1.0639  0.8054  0.9680  0.9680  0.9047

 Free energy of the ion-electron system (eV)
  ---------------------------------------------------
  alpha Z        PSCENC =        -0.25943859
  Ewald energy   TEWEN  =     22903.89334769
  -Hartree energ DENC   =    -23208.12867936
  -exchange      EXHF   =         0.00000000
  -V(xc)+E(xc)   XCENC  =      -184.27077857
  PAW double counting   =       249.04995451      -25.41579483
  entropy T*S    EENTRO =        -0.00197878
  eigenvalues    EBANDS =      -134.86936266
  atomic energy  EATOM  =       374.76784764
  Solvation  Ediel_sol  =         0.00000000
  ---------------------------------------------------
  free energy    TOTEN  =       -25.23488296 eV

  energy without entropy =      -25.23290418  energy(sigma->0) =      -25.23389357


--------------------------------------------------------------------------------------------------------




--------------------------------------- Iteration      1(  21)  ---------------------------------------


    POTLOK:  cpu time    0.1083: real time    0.1085
    SETDIJ:  cpu time    0.1093: real time    0.1094
     EDDAV:  cpu time    1.6127: real time    1.6193
       DOS:  cpu time    0.0006: real time    0.0006
    CHARGE:  cpu time    0.2341: real time    0.2347
    MIXING:  cpu time    0.0062: real time    0.0063
    --------------------------------------------
      LOOP:  cpu time    2.0713: real time    2.0788

 eigenvalue-minimisations  :   735
 total energy-change (2. order) : 0.2177513E-03  (-0.4034288E-05)
 number of electron      21.0000000 magnetization 
 augmentation part       -0.2889306 magnetization 

 Broyden mixing:
  rms(total) = 0.10778E-02    rms(broyden)= 0.10778E-02
  rms(prec ) = 0.18498E-02
  weight for this iteration     100.00

 eigenvalues of (default mixing * dielectric matrix)
  average eigenvalue GAMMA=   3.8112
 22.5992 11.8982  5.4416  4.4903  2.6883  2.5329  2.0150  1.7065  0.5611  1.2065
  1.2065  0.8050  0.9741  0.9741  0.9780  0.9016

 Free energy of the ion-electron system (eV)
  ---------------------------------------------------
  alpha Z        PSCENC =        -0.25943859
  Ewald energy   TEWEN  =     22903.89334769
  -Hartree energ DENC   =    -23209.35093188
  -exchange      EXHF   =         0.00000000
  -V(xc)+E(xc)   XCENC  =      -184.27008462
  PAW double counting   =       249.05811504      -25.42440180
  entropy T*S    EENTRO =        -0.00196595
  eigenvalues    EBANDS =      -133.64715273
  atomic energy  EATOM  =       374.76784764
  Solvation  Ediel_sol  =         0.00000000
  ---------------------------------------------------
  free energy    TOTEN  =       -25.23466521 eV

  energy without entropy =      -25.23269926  energy(sigma->0) =      -25.23368223


--------------------------------------------------------------------------------------------------------




--------------------------------------- Iteration      1(  22)  ---------------------------------------


    POTLOK:  cpu time    0.1274: real time    0.1276
    SETDIJ:  cpu time    0.1288: real time    0.1289
     EDDAV:  cpu time    1.3070: real time    1.3091
       DOS:  cpu time    0.0007: real time    0.0006
    CHARGE:  cpu time    0.2235: real time    0.2237
    MIXING:  cpu time    0.0090: real time    0.0090
    --------------------------------------------
      LOOP:  cpu time    1.7962: real time    1.7990

 eigenvalue-minimisations  :   655
 total energy-change (2. order) : 0.3922971E-03  (-0.9371468E-05)
 number of electron      21.0000000 magnetization 
 augmentation part       -0.2889263 magnetization 

 Broyden mixing:
  rms(total) = 0.84665E-03    rms(broyden)= 0.84665E-03
  rms(prec ) = 0.14715E-02
  weight for this iteration     100.00

 eigenvalues of (default mixing * dielectric matrix)
  average eigenvalue GAMMA=   3.8684
 25.3807 11.8411  6.1314  4.3476  2.7147  2.5556  1.9224  1.7853  1.4217  1.4217
  0.5611  0.8051  1.0704  0.9794  0.9794  0.9223  0.9223

 Free energy of the ion-electron system (eV)
  ---------------------------------------------------
  alpha Z        PSCENC =        -0.25943859
  Ewald energy   TEWEN  =     22903.89334769
  -Hartree energ DENC   =    -23211.04665368
  -exchange      EXHF   =         0.00000000
  -V(xc)+E(xc)   XCENC  =      -184.26846526
  PAW double counting   =       249.06463084      -25.43152615
  entropy T*S    EENTRO =        -0.00198306
  eigenvalues    EBANDS =      -131.95203233
  atomic energy  EATOM  =       374.76784764
  Solvation  Ediel_sol  =         0.00000000
  ---------------------------------------------------
  free energy    TOTEN  =       -25.23427291 eV

  energy without entropy =      -25.23228985  energy(sigma->0) =      -25.23328138


--------------------------------------------------------------------------------------------------------




--------------------------------------- Iteration      1(  23)  ---------------------------------------


    POTLOK:  cpu time    0.1135: real time    0.1138
    SETDIJ:  cpu time    0.1242: real time    0.1243
     EDDAV:  cpu time    1.5780: real time    1.5824
       DOS:  cpu time    0.0010: real time    0.0005
    CHARGE:  cpu time    0.2340: real time    0.2348
    MIXING:  cpu time    0.0090: real time    0.0090
    --------------------------------------------
      LOOP:  cpu time    2.0596: real time    2.0647

 eigenvalue-minimisations  :   730
 total energy-change (2. order) :-0.1971168E-04  (-0.1802581E-05)
 number of electron      21.0000000 magnetization 
 augmentation part       -0.2889187 magnetization 

 Broyden mixing:
  rms(total) = 0.70845E-03    rms(broyden)= 0.70845E-03
  rms(prec ) = 0.12438E-02
  weight for this iteration     100.00

 eigenvalues of (default mixing * dielectric matrix)
  average eigenvalue GAMMA=   4.2525
 29.2527 14.0054  7.1547  5.1836  3.3203  2.7349  2.4831  2.0345  1.5947  0.5611
  1.2763  1.2309  0.8051  1.0328  1.0328  0.9696  0.9696  0.9033

 Free energy of the ion-electron system (eV)
  ---------------------------------------------------
  alpha Z        PSCENC =        -0.25943859
  Ewald energy   TEWEN  =     22903.89334769
  -Hartree energ DENC   =    -23211.97030745
  -exchange      EXHF   =         0.00000000
  -V(xc)+E(xc)   XCENC  =      -184.26837574
  PAW double counting   =       249.05666139      -25.42307793
  entropy T*S    EENTRO =        -0.00199122
  eigenvalues    EBANDS =      -131.02895840
  atomic energy  EATOM  =       374.76784764
  Solvation  Ediel_sol  =         0.00000000
  ---------------------------------------------------
  free energy    TOTEN  =       -25.23429262 eV

  energy without entropy =      -25.23230140  energy(sigma->0) =      -25.23329701


--------------------------------------------------------------------------------------------------------




--------------------------------------- Iteration      1(  24)  ---------------------------------------


    POTLOK:  cpu time    0.1200: real time    0.1203
    SETDIJ:  cpu time    0.1166: real time    0.1167
     EDDAV:  cpu time    1.3454: real time    1.3490
       DOS:  cpu time    0.0006: real time    0.0006
    CHARGE:  cpu time    0.2360: real time    0.2364
    MIXING:  cpu time    0.0082: real time    0.0082
    --------------------------------------------
      LOOP:  cpu time    1.8269: real time    1.8313

 eigenvalue-minimisations  :   685
 total energy-change (2. order) :-0.1845200E-04  (-0.2764774E-05)
 number of electron      21.0000000 magnetization 
 augmentation part       -0.2889076 magnetization 

 Broyden mixing:
  rms(total) = 0.61371E-03    rms(broyden)= 0.61371E-03
  rms(prec ) = 0.10275E-02
  weight for this iteration     100.00

 eigenvalues of (default mixing * dielectric matrix)
  average eigenvalue GAMMA=   4.4565
 32.5011 15.2351  7.6631  5.8516  3.2051  3.2051  2.6516  2.0862  2.0862  1.5962
  0.5611  1.3151  0.8051  1.0632  1.0632  0.9774  0.9774  0.9148  0.9148

 Free energy of the ion-electron system (eV)
  ---------------------------------------------------
  alpha Z        PSCENC =        -0.25943859
  Ewald energy   TEWEN  =     22903.89334769
  -Hartree energ DENC   =    -23213.09712107
  -exchange      EXHF   =         0.00000000
  -V(xc)+E(xc)   XCENC  =      -184.26819553
  PAW double counting   =       249.04627656      -25.41208394
  entropy T*S    EENTRO =        -0.00199709
  eigenvalues    EBANDS =      -129.90294675
  atomic energy  EATOM  =       374.76784764
  Solvation  Ediel_sol  =         0.00000000
  ---------------------------------------------------
  free energy    TOTEN  =       -25.23431108 eV

  energy without entropy =      -25.23231398  energy(sigma->0) =      -25.23331253


--------------------------------------------------------------------------------------------------------




--------------------------------------- Iteration      1(  25)  ---------------------------------------


    POTLOK:  cpu time    0.1164: real time    0.1166
    SETDIJ:  cpu time    0.1203: real time    0.1204
     EDDAV:  cpu time    1.3129: real time    1.3154
       DOS:  cpu time    0.0006: real time    0.0006
    CHARGE:  cpu time    0.2424: real time    0.2427
    MIXING:  cpu time    0.0085: real time    0.0085
    --------------------------------------------
      LOOP:  cpu time    1.8011: real time    1.8043

 eigenvalue-minimisations  :   680
 total energy-change (2. order) :-0.1054512E-03  (-0.2363291E-05)
 number of electron      21.0000000 magnetization 
 augmentation part       -0.2889204 magnetization 

 Broyden mixing:
  rms(total) = 0.53585E-03    rms(broyden)= 0.53585E-03
  rms(prec ) = 0.86464E-03
  weight for this iteration     100.00

 eigenvalues of (default mixing * dielectric matrix)
  average eigenvalue GAMMA=   4.7223
 36.0482 17.0945  8.7050  6.4689  3.8516  3.6241  2.6064  2.5706  1.9290  1.6875
  0.5611  1.2941  1.2941  0.8051  1.0502  1.0502  0.9743  0.9743  0.9074  0.9500

 Free energy of the ion-electron system (eV)
  ---------------------------------------------------
  alpha Z        PSCENC =        -0.25943859
  Ewald energy   TEWEN  =     22903.89334769
  -Hartree energ DENC   =    -23213.63282824
  -exchange      EXHF   =         0.00000000
  -V(xc)+E(xc)   XCENC  =      -184.26898860
  PAW double counting   =       249.05322206      -25.41928232
  entropy T*S    EENTRO =        -0.00199437
  eigenvalues    EBANDS =      -129.36630179
  atomic energy  EATOM  =       374.76784764
  Solvation  Ediel_sol  =         0.00000000
  ---------------------------------------------------
  free energy    TOTEN  =       -25.23441653 eV

  energy without entropy =      -25.23242215  energy(sigma->0) =      -25.23341934


--------------------------------------------------------------------------------------------------------




--------------------------------------- Iteration      1(  26)  ---------------------------------------


    POTLOK:  cpu time    0.1207: real time    0.1210
    SETDIJ:  cpu time    0.1169: real time    0.1183
     EDDAV:  cpu time    1.3644: real time    1.3699
       DOS:  cpu time    0.0006: real time    0.0006
    CHARGE:  cpu time    0.2365: real time    0.2369
    MIXING:  cpu time    0.0139: real time    0.0139
    --------------------------------------------
      LOOP:  cpu time    1.8530: real time    1.8605

 eigenvalue-minimisations  :   735
 total energy-change (2. order) :-0.2831828E-04  (-0.1444494E-05)
 number of electron      21.0000000 magnetization 
 augmentation part       -0.2889071 magnetization 

 Broyden mixing:
  rms(total) = 0.52330E-03    rms(broyden)= 0.52330E-03
  rms(prec ) = 0.77018E-03
  weight for this iteration     100.00

 eigenvalues of (default mixing * dielectric matrix)
  average eigenvalue GAMMA=   4.8186
 37.6756 18.9185  8.9319  7.2600  4.0095  4.0095  2.6681  2.4679  2.0335  1.9687
  1.5665  0.5611  1.3255  0.8051  0.9671  0.9671  1.0848  1.0661  1.0397  0.9078
  0.9563

 Free energy of the ion-electron system (eV)
  ---------------------------------------------------
  alpha Z        PSCENC =        -0.25943859
  Ewald energy   TEWEN  =     22903.89334769
  -Hartree energ DENC   =    -23214.44792195
  -exchange      EXHF   =         0.00000000
  -V(xc)+E(xc)   XCENC  =      -184.26779483
  PAW double counting   =       249.06095770      -25.42754989
  entropy T*S    EENTRO =        -0.00199076
  eigenvalues    EBANDS =      -128.55190184
  atomic energy  EATOM  =       374.76784764
  Solvation  Ediel_sol  =         0.00000000
  ---------------------------------------------------
  free energy    TOTEN  =       -25.23444485 eV

  energy without entropy =      -25.23245408  energy(sigma->0) =      -25.23344946


--------------------------------------------------------------------------------------------------------




--------------------------------------- Iteration      1(  27)  ---------------------------------------


    POTLOK:  cpu time    0.1201: real time    0.1204
    SETDIJ:  cpu time    0.1164: real time    0.1165
     EDDAV:  cpu time    1.4306: real time    1.4402
       DOS:  cpu time    0.0006: real time    0.0014
    CHARGE:  cpu time    0.2456: real time    0.2511
    MIXING:  cpu time    0.0076: real time    0.0076
    --------------------------------------------
      LOOP:  cpu time    1.9208: real time    1.9371

 eigenvalue-minimisations  :   770
 total energy-change (2. order) :-0.5248376E-04  (-0.8654404E-06)
 number of electron      21.0000000 magnetization 
 augmentation part       -0.2889097 magnetization 

 Broyden mixing:
  rms(total) = 0.37946E-03    rms(broyden)= 0.37946E-03
  rms(prec ) = 0.59789E-03
  weight for this iteration     100.00

 eigenvalues of (default mixing * dielectric matrix)
  average eigenvalue GAMMA=   5.0520
 42.2213 20.1434 10.1378  7.6566  4.6294  4.0072  2.7594  2.6796  2.4407  2.0052
  1.6052  0.5611  1.3467  1.2775  0.8051  1.1175  0.9896  0.9896  0.9857  0.9050
  0.9397  0.9397

 Free energy of the ion-electron system (eV)
  ---------------------------------------------------
  alpha Z        PSCENC =        -0.25943859
  Ewald energy   TEWEN  =     22903.89334769
  -Hartree energ DENC   =    -23214.77566106
  -exchange      EXHF   =         0.00000000
  -V(xc)+E(xc)   XCENC  =      -184.26812610
  PAW double counting   =       249.05467055      -25.42092442
  entropy T*S    EENTRO =        -0.00200141
  eigenvalues    EBANDS =      -128.22421163
  atomic energy  EATOM  =       374.76784764
  Solvation  Ediel_sol  =         0.00000000
  ---------------------------------------------------
  free energy    TOTEN  =       -25.23449733 eV

  energy without entropy =      -25.23249592  energy(sigma->0) =      -25.23349662


--------------------------------------------------------------------------------------------------------




--------------------------------------- Iteration      1(  28)  ---------------------------------------


    POTLOK:  cpu time    0.1178: real time    0.1205
    SETDIJ:  cpu time    0.1150: real time    0.1205
     EDDAV:  cpu time    1.1190: real time    1.1439
       DOS:  cpu time    0.0006: real time    0.0006
    CHARGE:  cpu time    0.2417: real time    0.2426
    MIXING:  cpu time    0.0095: real time    0.0095
    --------------------------------------------
      LOOP:  cpu time    1.6036: real time    1.6375

 eigenvalue-minimisations  :   555
 total energy-change (2. order) :-0.4005646E-04  (-0.1369093E-06)
 number of electron      21.0000000 magnetization 
 augmentation part       -0.2889104 magnetization 

 Broyden mixing:
  rms(total) = 0.32139E-03    rms(broyden)= 0.32139E-03
  rms(prec ) = 0.49217E-03
  weight for this iteration     100.00

 eigenvalues of (default mixing * dielectric matrix)
  average eigenvalue GAMMA=   5.2226
 45.2771 21.7944 11.1622  8.0490  5.2856  4.1012  3.0347  2.6706  2.4408  2.0645
  1.7698  1.6214  0.5611  1.3344  1.1704  1.1704  0.8051  1.0133  1.0133  0.9069
  0.9620  0.9620  0.9508

 Free energy of the ion-electron system (eV)
  ---------------------------------------------------
  alpha Z        PSCENC =        -0.25943859
  Ewald energy   TEWEN  =     22903.89334769
  -Hartree energ DENC   =    -23215.12808039
  -exchange      EXHF   =         0.00000000
  -V(xc)+E(xc)   XCENC  =      -184.26819926
  PAW double counting   =       249.05051764      -25.41658272
  entropy T*S    EENTRO =        -0.00199925
  eigenvalues    EBANDS =      -127.87195014
  atomic energy  EATOM  =       374.76784764
  Solvation  Ediel_sol  =         0.00000000
  ---------------------------------------------------
  free energy    TOTEN  =       -25.23453739 eV

  energy without entropy =      -25.23253814  energy(sigma->0) =      -25.23353776


--------------------------------------------------------------------------------------------------------




--------------------------------------- Iteration      1(  29)  ---------------------------------------


    POTLOK:  cpu time    0.1210: real time    0.1213
    SETDIJ:  cpu time    0.1181: real time    0.1183
     EDDAV:  cpu time    1.1702: real time    1.1983
       DOS:  cpu time    0.0006: real time    0.0006
    CHARGE:  cpu time    0.2341: real time    0.2473
    MIXING:  cpu time    0.0075: real time    0.0076
    --------------------------------------------
      LOOP:  cpu time    1.6515: real time    1.6932

 eigenvalue-minimisations  :   600
 total energy-change (2. order) :-0.2690018E-04  (-0.6030982E-06)
 number of electron      21.0000000 magnetization 
 augmentation part       -0.2889026 magnetization 

 Broyden mixing:
  rms(total) = 0.26441E-03    rms(broyden)= 0.26441E-03
  rms(prec ) = 0.40064E-03
  weight for this iteration     100.00

 eigenvalues of (default mixing * dielectric matrix)
  average eigenvalue GAMMA=   5.5286
 50.2415 23.6966 12.5207  8.7737  5.8526  4.6044  3.3475  2.8993  2.6239  2.3447
  2.0467  1.6343  0.5611  1.3997  1.3253  0.8051  1.0985  1.0985  0.9055  0.9587
  0.9587  0.9951  0.9969  0.9969

 Free energy of the ion-electron system (eV)
  ---------------------------------------------------
  alpha Z        PSCENC =        -0.25943859
  Ewald energy   TEWEN  =     22903.89334769
  -Hartree energ DENC   =    -23215.53173710
  -exchange      EXHF   =         0.00000000
  -V(xc)+E(xc)   XCENC  =      -184.26777709
  PAW double counting   =       249.05084147      -25.41691320
  entropy T*S    EENTRO =        -0.00200306
  eigenvalues    EBANDS =      -127.46873204
  atomic energy  EATOM  =       374.76784764
  Solvation  Ediel_sol  =         0.00000000
  ---------------------------------------------------
  free energy    TOTEN  =       -25.23456429 eV

  energy without entropy =      -25.23256123  energy(sigma->0) =      -25.23356276


--------------------------------------------------------------------------------------------------------




--------------------------------------- Iteration      1(  30)  ---------------------------------------


    POTLOK:  cpu time    0.1157: real time    0.1185
    SETDIJ:  cpu time    0.1197: real time    0.1203
     EDDAV:  cpu time    1.1733: real time    1.1835
       DOS:  cpu time    0.0006: real time    0.0006
    CHARGE:  cpu time    0.2342: real time    0.2365
    MIXING:  cpu time    0.0103: real time    0.0105
    --------------------------------------------
      LOOP:  cpu time    1.6539: real time    1.6699

 eigenvalue-minimisations  :   595
 total energy-change (2. order) :-0.5256785E-04  (-0.4363647E-06)
 number of electron      21.0000000 magnetization 
 augmentation part       -0.2889066 magnetization 

 Broyden mixing:
  rms(total) = 0.20919E-03    rms(broyden)= 0.20919E-03
  rms(prec ) = 0.30433E-03
  weight for this iteration     100.00

 eigenvalues of (default mixing * dielectric matrix)
  average eigenvalue GAMMA=   5.7117
 53.4640 25.6091 13.5075  9.4400  6.2974  4.9818  3.3896  3.3896  2.6690  2.4547
  1.9823  1.9823  1.6072  0.5611  1.3790  1.2724  0.8051  1.1467  0.9060  0.9606
  0.9606  1.0104  1.0104  1.0147  0.9905

 Free energy of the ion-electron system (eV)
  ---------------------------------------------------
  alpha Z        PSCENC =        -0.25943859
  Ewald energy   TEWEN  =     22903.89334769
  -Hartree energ DENC   =    -23215.71612864
  -exchange      EXHF   =         0.00000000
  -V(xc)+E(xc)   XCENC  =      -184.26825102
  PAW double counting   =       249.05375892      -25.41991189
  entropy T*S    EENTRO =        -0.00199905
  eigenvalues    EBANDS =      -127.28384189
  atomic energy  EATOM  =       374.76784764
  Solvation  Ediel_sol  =         0.00000000
  ---------------------------------------------------
  free energy    TOTEN  =       -25.23461685 eV

  energy without entropy =      -25.23261780  energy(sigma->0) =      -25.23361733


--------------------------------------------------------------------------------------------------------




--------------------------------------- Iteration      1(  31)  ---------------------------------------


    POTLOK:  cpu time    0.1179: real time    0.1206
    SETDIJ:  cpu time    0.1167: real time    0.1187
     EDDAV:  cpu time    1.2101: real time    1.2179
[...]
      7      -6.2133      2.00000
      8      -4.9017      2.00000
      9      -2.7938      2.00000
     10      -0.8933      0.00000
     11       0.7952      0.00000
     12       1.8608      0.00000
     13       2.3022      0.00000
     14       2.3391      0.00000
     15       2.3494      0.00000

 k-point     3 :       0.1538    0.0000    0.0000
  band No.  band energies     occupation 
      1     -12.0929      2.00000
      2     -11.6655      2.00000
      3     -10.9911      2.00000
      4     -10.0726      2.00000
      5      -8.9150      2.00000
      6      -7.5245      2.00000
      7      -5.8318      2.00000
      8      -4.5378      2.00000
      9      -2.4325      2.00000
     10      -0.5494      0.00000
     11       1.1071      0.00000
     12       2.1487      0.00000
     13       2.5743      0.00000
     14       2.7066      0.00000
     15       2.7475      0.00000

 k-point     4 :       0.2308    0.0000    0.0000
  band No.  band energies     occupation 
      1     -11.4421      2.00000
      2     -11.0164      2.00000
      3     -10.3448      2.00000
      4      -9.4299      2.00000
      5      -8.2768      2.00000
      6      -6.8918      2.00000
      7      -5.2012      2.00000
      8      -3.9365      2.00000
      9      -1.8650      0.16769
     10      -0.3282      0.00000
     11       0.2152      0.00000
     12       0.6133      0.00000
     13       1.0494      0.00000
     14       1.8748      0.00000
     15       1.9326      0.00000

 k-point     5 :       0.3077    0.0000    0.0000
  band No.  band energies     occupation 
      1     -10.5358      2.00000
      2     -10.1125      2.00000
      3      -9.4447      2.00000
      4      -8.5352      2.00000
      5      -7.3893      2.00000
      6      -6.0146      2.00000
      7      -4.3377      2.00000
      8      -3.1469      2.00000
      9      -2.4015      2.00000
     10      -1.9505      1.70180
     11      -1.2979      0.00000
     12      -0.7348      0.00000
     13      -0.3848      0.00000
     14       0.6965      0.00000
     15       1.0346      0.00000

 k-point     6 :       0.3846    0.0000    0.0000
  band No.  band energies     occupation 
      1      -9.3786      2.00000
      2      -8.9585      2.00000
      3      -8.2961      2.00000
      4      -7.3949      2.00000
      5      -6.2626      2.00000
      6      -4.9239      2.00000
      7      -4.4743      2.00000
      8      -4.1002      2.00000
      9      -3.5333      2.00000
     10      -3.0300      2.00000
     11      -2.4116      2.00000
     12      -1.8937      0.57115
     13      -1.3462      0.00000
     14      -0.0293      0.00000
     15       0.2135      0.00000

 k-point     7 :       0.4615    0.0000    0.0000
  band No.  band energies     occupation 
      1      -7.9765      2.00000
      2      -7.5613      2.00000
      3      -6.9090      2.00000
      4      -6.3408      2.00000
      5      -6.0325      2.00000
      6      -5.9174      2.00000
      7      -5.2992      2.00000
      8      -4.9598      2.00000
      9      -4.3514      2.00000
     10      -3.4866      2.00000
     11      -3.0920      2.00000
     12      -1.8474      0.06059
     13      -1.7603      0.00001
     14      -0.6154      0.00000
     15      -0.1605      0.00000

 k-point     8 :       0.0769    0.0769    0.0000
  band No.  band energies     occupation 
      1     -12.2234      2.00000
      2     -11.7956      2.00000
      3     -11.1208      2.00000
      4     -10.2016      2.00000
      5      -9.0431      2.00000
      6      -7.6515      2.00000
      7      -5.9588      2.00000
      8      -4.6589      2.00000
      9      -2.5520      2.00000
     10      -0.6606      0.00000
     11       1.0181      0.00000
     12       2.0966      0.00000
     13       2.5649      0.00000
     14       2.5941      0.00000
     15       2.6151      0.00000

 k-point     9 :       0.1538    0.0769    0.0000
  band No.  band energies     occupation 
      1     -11.7021      2.00000
      2     -11.2757      2.00000
      3     -10.6030      2.00000
      4      -9.6866      2.00000
      5      -8.5317      2.00000
      6      -7.1443      2.00000
      7      -5.4525      2.00000
      8      -4.1757      2.00000
      9      -2.0804      2.00000
     10      -0.2442      0.00000
     11       1.0937      0.00000
     12       1.6866      0.00000
     13       1.8217      0.00000
     14       2.3772      0.00000
     15       2.5975      0.00000

 k-point    10 :       0.2308    0.0769    0.0000
  band No.  band energies     occupation 
      1     -10.9236      2.00000
      2     -10.4992      2.00000
      3      -9.8297      2.00000
      4      -8.9178      2.00000
      5      -7.7687      2.00000
      6      -6.3889      2.00000
      7      -4.7027      2.00000
      8      -3.4643      2.00000
      9      -1.5694      0.00000
     10      -1.0821      0.00000
     11      -0.5900      0.00000
     12       0.0060      0.00000
     13       0.5598      0.00000
     14       0.9206      0.00000
     15       1.8045      0.00000

 k-point    11 :       0.3077    0.0769    0.0000
  band No.  band energies     occupation 
      1      -9.8918      2.00000
      2      -9.4702      2.00000
      3      -8.8053      2.00000
      4      -7.9000      2.00000
      5      -6.7604      2.00000
      6      -5.3971      2.00000
      7      -3.7669      2.00000
      8      -3.3874      2.00000
      9      -3.0030      2.00000
     10      -2.4684      2.00000
     11      -2.0946      2.00000
     12      -1.3406      0.00000
     13      -0.3608      0.00000
     14      -0.1810      0.00000
     15       0.9875      0.00000

 k-point    12 :       0.3846    0.0769    0.0000
  band No.  band energies     occupation 
      1      -8.6120      2.00000
      2      -8.1943      2.00000
      3      -7.5363      2.00000
      4      -6.6427      2.00000
      5      -5.5326      2.00000
      6      -5.3342      2.00000
      7      -4.9378      2.00000
      8      -4.4435      2.00000
      9      -4.0433      2.00000
     10      -3.2991      2.00000
     11      -2.3943      2.00000
     12      -2.1423      2.00000
     13      -1.2497      0.00000
     14      -0.8435      0.00000
     15       0.5820      0.00000

 k-point    13 :       0.4615    0.0769    0.0000
  band No.  band energies     occupation 
      1      -7.0933      2.00000
      2      -7.0897      2.00000
      3      -6.6879      2.00000
      4      -6.6760      2.00000
      5      -6.0664      2.00000
      6      -5.9976      2.00000
      7      -5.2282      2.00000
      8      -5.1141      2.00000
      9      -4.1929      2.00000
     10      -3.7221      2.00000
     11      -2.6530      2.00000
     12      -2.4726      2.00000
     13      -1.0729      0.00000
     14      -0.7778      0.00000
     15       0.0376      0.00000

 k-point    14 :       0.1538    0.1538    0.0000
  band No.  band energies     occupation 
      1     -11.0530      2.00000
      2     -10.6283      2.00000
      3      -9.9583      2.00000
      4      -9.0456      2.00000
      5      -7.8955      2.00000
      6      -6.5141      2.00000
      7      -4.8260      2.00000
      8      -3.5786      2.00000
      9      -1.5389      0.00000
     10      -0.1038      0.00000
     11       0.2747      0.00000
     12       0.6015      0.00000
     13       0.8659      0.00000
     14       1.0756      0.00000
     15       1.3828      0.00000

 k-point    15 :       0.2308    0.1538    0.0000
  band No.  band energies     occupation 
      1     -10.1490      2.00000
      2      -9.7267      2.00000
      3      -9.0606      2.00000
      4      -8.1535      2.00000
      5      -7.0109      2.00000
      6      -5.6411      2.00000
      7      -3.9705      2.00000
      8      -2.7991      2.00000
      9      -2.0383      1.99958
     10      -1.5935      0.00000
     11      -0.9679      0.00000
     12      -0.6617      0.00000
     13      -0.2939      0.00000
     14      -0.0475      0.00000
     15       0.1835      0.00000

 k-point    16 :       0.3077    0.1538    0.0000
  band No.  band energies     occupation 
      1      -8.9946      2.00000
      2      -8.5756      2.00000
      3      -7.9151      2.00000
      4      -7.0166      2.00000
      5      -5.8886      2.00000
      6      -4.5581      2.00000
      7      -4.1032      2.00000
      8      -3.7333      2.00000
      9      -3.1738      2.00000
     10      -2.6723      2.00000
     11      -2.0555      1.99994
     12      -1.5930      0.00000
     13      -1.0180      0.00000
     14      -0.9450      0.00000
     15      -0.5054      0.00000

 k-point    17 :       0.3846    0.1538    0.0000
  band No.  band energies     occupation 
      1      -7.5959      2.00000
      2      -7.1819      2.00000
      3      -6.5315      2.00000
      4      -5.9635      2.00000
      5      -5.6578      2.00000
      6      -5.5459      2.00000
      7      -4.9279      2.00000
      8      -4.5959      2.00000
      9      -3.9857      2.00000
     10      -3.1280      2.00000
     11      -2.7301      2.00000
     12      -1.5380      0.00000
     13      -1.4704      0.00000
     14      -1.1985      0.00000
     15      -0.8655      0.00000

 k-point    18 :       0.2308    0.2308    0.0000
  band No.  band energies     occupation 
      1      -9.1224      2.00000
      2      -8.7029      2.00000
      3      -8.0416      2.00000
      4      -7.1419      2.00000
      5      -6.0108      2.00000
      6      -4.6640      2.00000
      7      -3.0872      2.00000
      8      -2.6719      2.00000
      9      -2.6440      2.00000
     10      -2.3706      2.00000
     11      -2.1558      2.00000
     12      -1.7461      0.00000
     13      -1.4960      0.00000
     14      -1.2468      0.00000
     15      -0.7474      0.00000

 k-point    19 :       0.3077    0.2308    0.0000
  band No.  band energies     occupation 
      1      -7.8489      2.00000
      2      -7.4336      2.00000
      3      -6.7797      2.00000
      4      -5.8932      2.00000
      5      -4.7950      2.00000
      6      -4.5912      2.00000
      7      -4.1964      2.00000
      8      -3.7273      2.00000
      9      -3.3393      2.00000
     10      -2.9959      2.00000
     11      -2.6723      2.00000
     12      -2.5378      2.00000
     13      -2.0572      1.99995
     14      -1.6990      0.00000
     15      -1.3171      0.00000

 k-point    20 :       0.3846    0.2308    0.0000
  band No.  band energies     occupation 
      1      -6.3376      2.00000
      2      -6.3342      2.00000
      3      -5.9326      2.00000
      4      -5.9240      2.00000
      5      -5.3128      2.00000
      6      -5.2612      2.00000
      7      -4.4890      2.00000
      8      -4.3881      2.00000
      9      -3.4947      2.00000
     10      -3.1194      2.00000
     11      -3.0017      2.00000
     12      -2.7342      2.00000
     13      -2.2525      2.00000
     14      -2.0462      1.99982
     15      -1.5474      0.00000

 k-point    21 :       0.3077    0.3077    0.0000
  band No.  band energies     occupation 
      1      -6.4609      2.00000
      2      -6.0513      2.00000
      3      -5.4099      2.00000
      4      -4.8411      2.00000
      5      -4.8386      2.00000
      6      -4.5556      2.00000
      7      -4.4453      2.00000
      8      -4.4315      2.00000
      9      -3.8381      2.00000
     10      -3.8170      2.00000
     11      -3.5787      2.00000
     12      -3.0743      2.00000
     13      -2.7113      2.00000
     14      -2.1712      2.00000
     15      -1.5553      0.00000


--------------------------------------------------------------------------------------------------------


 soft charge-density along one line, spin component           1
         0         1         2         3         4         5         6         7         8         9
 total charge-density along one line
 
 pseudopotential strength for first ion, spin component:           1
  8.780   0.006  -0.000  -0.002   0.000  -0.000  -0.000   0.000
  0.006  -0.000  -0.000   0.000   0.000   0.000   0.000  -0.000
 -0.000  -0.000   1.971  -0.000  -0.000   0.000   0.000   0.000
 -0.002   0.000  -0.000   1.972   0.000   0.000   0.000  -0.000
  0.000   0.000  -0.000   0.000   1.971   0.000  -0.000   0.000
 -0.000   0.000   0.000   0.000   0.000  -0.018   0.000   0.000
 -0.000   0.000   0.000   0.000  -0.000   0.000  -0.018  -0.000
  0.000  -0.000   0.000  -0.000   0.000   0.000  -0.000  -0.018
 total augmentation occupancy for first ion, spin component:           1
  1.461  -0.297  -0.000  -0.031   0.000   0.000  -0.041   0.000
 -0.297   0.325  -0.000  -0.135   0.000   0.000   0.040  -0.000
 -0.000   0.000   0.632   0.000  -0.000  -0.115  -0.000   0.000
 -0.031  -0.135   0.000   0.588   0.000  -0.000  -0.093  -0.000
  0.000   0.000  -0.000   0.000   0.632   0.000  -0.000  -0.115
  0.000   0.000  -0.115  -0.000   0.000   0.024   0.000  -0.000
 -0.041   0.040  -0.000  -0.093  -0.000   0.000   0.019   0.000
  0.000  -0.000   0.000  -0.000  -0.115  -0.000   0.000   0.024


------------------------ aborting loop because EDIFF is reached ----------------------------------------


    CHARGE:  cpu time    0.2357: real time    0.2360
    FORLOC:  cpu time    0.0086: real time    0.0086
    FORNL :  cpu time    0.8190: real time    0.8206
    STRESS:  cpu time    2.6735: real time    2.6782
    FORCOR:  cpu time    0.1087: real time    0.1088
    FORHAR:  cpu time    0.0324: real time    0.0324
    MIXING:  cpu time    0.0065: real time    0.0065
    OFIELD:  cpu time    0.0010: real time    0.0001

  FORCE on cell =-STRESS in cart. coord.  units (eV):
  Direction    XX          YY          ZZ          XY          YZ          ZX
  --------------------------------------------------------------------------------------
  Alpha Z    -0.25944    -0.25944    -0.25944
  Ewald   23235.06767 23235.06808-23566.24601     0.00000     0.00000     0.00015
  Hartree 23215.68375 23215.68375-23215.15349     0.00000     0.00000    -0.00000
  E(xc)     -58.37823   -58.37824   -58.97483    -0.00000     0.00000    -0.00000
  Local  -46619.59743-46619.59746 46613.37449     0.00000     0.00000    -0.00004
  n-local   128.25413   134.54272   135.05710    -0.20059    -0.63164     1.38954
  augment    -7.65704    -7.65702    -7.81585    -0.00000    -0.00000     0.00000
  Kinetic   160.32115    39.63685   100.44169     8.22887     0.08024    -1.19799
  Fock        0.00000     0.00000     0.00000     0.00000     0.00000     0.00000
  -------------------------------------------------------------------------------------
  Total      -3.76327    -3.76325     0.42366     0.00000     0.00000    -0.00000
  in kB      -9.50448    -9.50443     1.07000     0.00000     0.00000    -0.00000
  external pressure =       -5.98 kB  Pullay stress =        0.00 kB


 VOLUME and BASIS-vectors are now :
 -----------------------------------------------------------------------------
  energy-cutoff  :      450.00
  volume of cell :      634.38
      direct lattice vectors                 reciprocal lattice vectors
     2.585139981 -1.492527023  0.000000000     0.386826248  0.000000000  0.000000000
     0.000000000  2.985054047  0.000000000     0.193413124  0.335002310  0.000000000
    -0.000000000  0.000000000 82.207404478    -0.000000000  0.000000000  0.012164354

  length of vectors
     2.985060408  2.985054047 82.207404478     0.386826248  0.386827072  0.012164354


 FORCES acting on ions
    electron-ion (+dipol)            ewald-force                    non-local-force                 convergence-correction
 -----------------------------------------------------------------------------------------------
   0.389E-05 -.129E-09 0.514E+03   -.118E-04 0.228E-05 -.512E+03   -.396E-16 0.000E+00 -.163E+01   -.101E-10 0.245E-11 0.107E-03
   -.145E-06 -.362E-08 -.660E-01   0.431E-06 -.951E-07 -.715E-02   -.124E-17 0.434E-18 0.127E+00   -.458E-11 0.109E-12 -.646E-05
   -.429E-05 -.211E-08 -.514E+03   0.129E-04 -.253E-05 0.512E+03   0.393E-16 0.555E-16 0.195E+01   0.401E-11 -.222E-11 -.105E-03
   0.154E-04 -.264E-04 0.171E+03   -.454E-05 0.753E-05 -.171E+03   0.162E-17 0.000E+00 0.943E-01   -.362E-11 0.107E-10 -.306E-04
   0.159E-04 -.266E-04 -.342E+03   -.476E-05 0.744E-05 0.342E+03   0.730E-17 0.000E+00 -.300E+00   0.819E-11 0.919E-11 -.130E-03
   -.154E-04 0.264E-04 0.342E+03   0.353E-05 -.727E-05 -.342E+03   0.352E-17 -.139E-16 -.452E-01   -.186E-11 -.941E-11 0.840E-04
   -.153E-04 0.263E-04 -.171E+03   0.422E-05 -.736E-05 0.171E+03   0.217E-18 0.520E-17 -.178E+00   0.668E-11 -.104E-10 -.300E-04
 -----------------------------------------------------------------------------------------------
   0.163E-06 -.287E-06 -.203E-01   0.583E-14 -.734E-15 0.000E+00   0.110E-16 0.473E-16 0.204E-01   -.126E-11 0.350E-12 -.111E-03
 
 
 POSITION                                       TOTAL-FORCE (eV/Angst)
 -----------------------------------------------------------------------------------
     -0.00000      0.00000     19.19924        -0.000000     -0.000000      0.013958
     -0.00000      0.00000     25.87107        -0.000000     -0.000000      0.053474
     -0.00000      0.00000     32.52204        -0.000000     -0.000000      0.121453
      1.72343     -0.00000     23.66431         0.000000     -0.000000     -0.022773
      1.72343     -0.00000     30.31632         0.000000      0.000000     -0.110786
      0.86171      1.49253     21.44896         0.000000      0.000000     -0.043168
      0.86171      1.49253     28.09438         0.000000     -0.000000     -0.012157
 -----------------------------------------------------------------------------------
    total drift:                                0.000000     -0.000000     -0.000005


--------------------------------------------------------------------------------------------------------



  FREE ENERGIE OF THE ION-ELECTRON SYSTEM (eV)
  ---------------------------------------------------
  free  energy   TOTEN  =       -25.23480554 eV

  energy  without entropy=      -25.23280434  energy(sigma->0) =      -25.23380494
 


--------------------------------------------------------------------------------------------------------


    POTLOK:  cpu time    0.2196: real time    0.2208


--------------------------------------------------------------------------------------------------------


 stress matrix after NEB project (eV)
     -3.76327      0.00000     -0.00000
      0.00000     -3.76325      0.00000
     -0.00000      0.00000      0.42366
  FORCES: max atom, RMS     0.121453    0.068252
  FORCE total and by dimension    0.180578    0.121453
  Stress total and by dimension    5.338885    3.763268
     LOOP+:  cpu time   78.1655: real time   79.4891
    4ORBIT:  cpu time    0.0000: real time    0.0000

 total amount of memory used by VASP MPI-rank0    76346. kBytes
=======================================================================

   base      :      30000. kBytes
   nonl-proj :       5008. kBytes
   fftplans  :      25300. kBytes
   grid      :      12545. kBytes
   one-center:          6. kBytes
   wavefun   :       3487. kBytes
 
  
  
 General timing and accounting informations for this job:
 ========================================================
  
                  Total CPU time used (sec):       83.643
                            User time (sec):       81.076
                          System time (sec):        2.566
                         Elapsed time (sec):       85.539
  
                   Maximum memory used (kb):      170328.
                   Average memory used (kb):           0.
  
                          Minor page faults:       317087
                          Major page faults:            0
                 Voluntary context switches:          214
