       N       E                     dE             d eps       ncg     rms          rms(c)
DAV:   1     0.501071793031E+03    0.50107E+03   -0.40868E+04  6116   0.131E+03
DAV:   2    -0.828750524226E+02   -0.58395E+03   -0.55148E+03  7942   0.252E+02
DAV:   3    -0.146441889601E+03   -0.63567E+02   -0.63191E+02  7168   0.894E+01
DAV:   4    -0.147623519080E+03   -0.11816E+01   -0.11788E+01  7200   0.133E+01
DAV:   5    -0.147650841524E+03   -0.27322E-01   -0.27302E-01  7468   0.199E+00    0.220E+01
DAV:   6    -0.132712100643E+03    0.14939E+02   -0.82426E+01  6996   0.290E+01    0.737E+00
DAV:   7    -0.132573434254E+03    0.13867E+00   -0.18754E+00  6712   0.499E+00    0.457E+00
DAV:   8    -0.132471901310E+03    0.10153E+00   -0.64791E-01  6908   0.389E+00    0.101E+00
DAV:   9    -0.132448680421E+03    0.23221E-01   -0.18810E-01  6924   0.112E+00    0.642E-01
DAV:  10    -0.132439100697E+03    0.95797E-02   -0.37244E-02  7026   0.674E-01    0.322E-01
DAV:  11    -0.132441721074E+03   -0.26204E-02   -0.19763E-02  6806   0.536E-01    0.189E-01
DAV:  12    -0.132441605972E+03    0.11510E-03   -0.59005E-03  7908   0.258E-01    0.124E-01
DAV:  13    -0.132441541666E+03    0.64306E-04   -0.28719E-03  7154   0.222E-01    0.757E-02
DAV:  14    -0.132441143904E+03    0.39776E-03   -0.10869E-03  6978   0.138E-01    0.420E-02
DAV:  15    -0.132440990594E+03    0.15331E-03   -0.17101E-04  7284   0.710E-02    0.221E-02
DAV:  16    -0.132440681493E+03    0.30910E-03   -0.19071E-04  7244   0.129E-01    0.219E-02
DAV:  17    -0.132440311492E+03    0.37000E-03   -0.23344E-04  8458   0.205E-01    0.172E-02
DAV:  18    -0.132439767303E+03    0.54419E-03   -0.90759E-04 10022   0.429E-01    0.289E-02
DAV:  19    -0.132439660621E+03    0.10668E-03   -0.82115E-04  7160   0.242E-01    0.312E-02
DAV:  20    -0.132439658565E+03    0.20551E-05   -0.41758E-04  7056   0.101E-01    0.176E-02
DAV:  21    -0.132439650062E+03    0.85031E-05   -0.57627E-05  6628   0.425E-02
   1 F= -.13243965E+03 E0= -.13243552E+03  d E =-.132440E+03
       N       E                     dE             d eps       ncg     rms          rms(c)
DAV:   1    -0.132440677453E+03   -0.10189E-02   -0.21587E-02  6650   0.662E-01    0.371E-02
DAV:   2    -0.132440719033E+03   -0.41581E-04   -0.12916E-03  7136   0.172E-01    0.336E-02
DAV:   3    -0.132440682953E+03    0.36080E-04   -0.18577E-04  7002   0.525E-02    0.245E-02
DAV:   4    -0.132440670859E+03    0.12093E-04   -0.14537E-05  4040   0.162E-02    0.197E-02
DAV:   5    -0.132440634051E+03    0.36809E-04   -0.40583E-05  6372   0.429E-02    0.985E-03
DAV:   6    -0.132440609347E+03    0.24704E-04   -0.33599E-05  6482   0.581E-02    0.931E-03
DAV:   7    -0.132440594564E+03    0.14783E-04   -0.47488E-05  6764   0.747E-02    0.542E-03
DAV:   8    -0.132440593870E+03    0.69421E-06   -0.51678E-05  5868   0.418E-02
   2 F= -.13244059E+03 E0= -.13243653E+03  d E =-.943807E-03
       N       E                     dE             d eps       ncg     rms          rms(c)
DAV:   1    -0.132441027767E+03   -0.43320E-03   -0.23631E-02  6648   0.675E-01    0.293E-02
DAV:   2    -0.132441058701E+03   -0.30935E-04   -0.92878E-04  7128   0.139E-01    0.282E-02
DAV:   3    -0.132441027243E+03    0.31458E-04   -0.12968E-04  6944   0.433E-02    0.210E-02
DAV:   4    -0.132441015965E+03    0.11278E-04   -0.11009E-05  3932   0.166E-02    0.163E-02
DAV:   5    -0.132440981089E+03    0.34877E-04   -0.34385E-05  6284   0.506E-02    0.808E-03
DAV:   6    -0.132440966681E+03    0.14408E-04   -0.20979E-05  5428   0.426E-02    0.646E-03
DAV:   7    -0.132440953364E+03    0.13317E-04   -0.22125E-05  5634   0.613E-02    0.455E-03
DAV:   8    -0.132440945575E+03    0.77886E-05   -0.17526E-05  4788   0.470E-02
   3 F= -.13244095E+03 E0= -.13243691E+03  d E =-.129551E-02
       N       E                     dE             d eps       ncg     rms          rms(c)
DAV:   1    -0.132441616876E+03   -0.66351E-03   -0.20782E-02  6316   0.628E-01    0.221E-02
DAV:   2    -0.132441657644E+03   -0.40768E-04   -0.53868E-04  6644   0.929E-02    0.146E-02
DAV:   3    -0.132441653045E+03    0.45988E-05   -0.10347E-05  4440   0.186E-02    0.933E-03
DAV:   4    -0.132441651818E+03    0.12276E-05   -0.13713E-05  4010   0.168E-02    0.526E-03
DAV:   5    -0.132441650535E+03    0.12832E-05   -0.68590E-06  3494   0.106E-02    0.266E-03
DAV:   6    -0.132441650141E+03    0.39333E-06   -0.12670E-06  3580   0.812E-03
   4 F= -.13244165E+03 E0= -.13243763E+03  d E =-.704566E-03
       N       E                     dE             d eps       ncg     rms          rms(c)
DAV:   1    -0.132442979493E+03   -0.13290E-02   -0.18628E-01  6276   0.188E+00    0.652E-02
DAV:   2    -0.132443332519E+03   -0.35303E-03   -0.47586E-03  6726   0.277E-01    0.408E-02
DAV:   3    -0.132443289045E+03    0.43474E-04   -0.10440E-04  7192   0.614E-02    0.277E-02
DAV:   4    -0.132443273534E+03    0.15512E-04   -0.68282E-05  6484   0.383E-02    0.197E-02
DAV:   5    -0.132443244881E+03    0.28653E-04   -0.20139E-05  4670   0.446E-02    0.965E-03
DAV:   6    -0.132443222848E+03    0.22034E-04   -0.34290E-05  5962   0.599E-02    0.524E-03
DAV:   7    -0.132443218618E+03    0.42298E-05   -0.30989E-05  5496   0.321E-02
   5 F= -.13244322E+03 E0= -.13243925E+03  d E =-.227304E-02
       N       E                     dE             d eps       ncg     rms          rms(c)
DAV:   1    -0.132442832755E+03    0.39009E-03   -0.74664E-01  6220   0.376E+00    0.132E-01
DAV:   2    -0.132444245460E+03   -0.14127E-02   -0.19393E-02  6766   0.559E-01    0.844E-02
DAV:   3    -0.132444032684E+03    0.21278E-03   -0.52709E-04  7198   0.131E-01    0.573E-02
DAV:   4    -0.132443948374E+03    0.84311E-04   -0.28395E-04  6962   0.789E-02    0.414E-02
DAV:   5    -0.132443799940E+03    0.14843E-03   -0.73686E-05  6666   0.980E-02    0.231E-02
DAV:   6    -0.132443639207E+03    0.16073E-03   -0.16601E-04  7440   0.156E-01    0.145E-02
DAV:   7    -0.132443593900E+03    0.45307E-04   -0.18381E-04  6720   0.919E-02    0.120E-02
DAV:   8    -0.132443525019E+03    0.68881E-04   -0.37823E-05  5442   0.940E-02    0.113E-02
DAV:   9    -0.132443406441E+03    0.11858E-03   -0.90928E-05  8574   0.168E-01    0.128E-02
DAV:  10    -0.132443343607E+03    0.62834E-04   -0.10921E-04  7488   0.125E-01    0.902E-03
DAV:  11    -0.132443280139E+03    0.63468E-04   -0.78440E-05  7676   0.153E-01    0.551E-03
DAV:  12    -0.132443254158E+03    0.25981E-04   -0.10911E-04  7344   0.134E-01    0.877E-03
DAV:  13    -0.132443255014E+03   -0.85552E-06   -0.17718E-04  6772   0.651E-02    0.789E-03
DAV:  14    -0.132443252826E+03    0.21876E-05   -0.24633E-05  5542   0.254E-02
   6 F= -.13244325E+03 E0= -.13243945E+03  d E =-.230725E-02
       N       E                     dE             d eps       ncg     rms          rms(c)
DAV:   1    -0.132443576016E+03   -0.32100E-03   -0.15998E-01  6232   0.174E+00    0.585E-02
DAV:   2    -0.132443863131E+03   -0.28712E-03   -0.39996E-03  6758   0.256E-01    0.381E-02
DAV:   3    -0.132443822837E+03    0.40294E-04   -0.96030E-05  6880   0.550E-02    0.266E-02
DAV:   4    -0.132443806152E+03    0.16685E-04   -0.55337E-05  6454   0.340E-02    0.190E-02
DAV:   5    -0.132443776546E+03    0.29606E-04   -0.17412E-05  4688   0.453E-02    0.931E-03
DAV:   6    -0.132443754875E+03    0.21671E-04   -0.35435E-05  6040   0.587E-02    0.507E-03
DAV:   7    -0.132443749416E+03    0.54587E-05   -0.29448E-05  5568   0.355E-02
   7 F= -.13244375E+03 E0= -.13243991E+03  d E =-.280384E-02
       N       E                     dE             d eps       ncg     rms          rms(c)
DAV:   1    -0.132444239421E+03   -0.48455E-03   -0.32583E-02  6212   0.763E-01    0.264E-02
DAV:   2    -0.132444297373E+03   -0.57952E-04   -0.80135E-04  6664   0.112E-01    0.152E-02
DAV:   3    -0.132444289150E+03    0.82231E-05   -0.20672E-05  5012   0.206E-02    0.108E-02
DAV:   4    -0.132444285262E+03    0.38881E-05   -0.53399E-06  3644   0.101E-02    0.812E-03
DAV:   5    -0.132444274932E+03    0.10330E-04   -0.64703E-06  3900   0.280E-02    0.382E-03
DAV:   6    -0.132444269136E+03    0.57958E-05   -0.68972E-06  3792   0.220E-02
   8 F= -.13244427E+03 E0= -.13244046E+03  d E =-.519720E-03
       N       E                     dE             d eps       ncg     rms          rms(c)
DAV:   1    -0.132445015185E+03   -0.74025E-03   -0.29359E-01  6196   0.229E+00    0.792E-02
DAV:   2    -0.132445573395E+03   -0.55821E-03   -0.71325E-03  6612   0.327E-01    0.436E-02
DAV:   3    -0.132445528171E+03    0.45225E-04   -0.12566E-04  7090   0.510E-02    0.302E-02
DAV:   4    -0.132445497095E+03    0.31076E-04   -0.65542E-05  6872   0.433E-02    0.147E-02
DAV:   5    -0.132445483029E+03    0.14066E-04   -0.44467E-05  5970   0.378E-02    0.920E-03
DAV:   6    -0.132445474917E+03    0.81123E-05   -0.14439E-05  3930   0.201E-02
   9 F= -.13244547E+03 E0= -.13244174E+03  d E =-.172550E-02
       N       E                     dE             d eps       ncg     rms          rms(c)
DAV:   1    -0.132444158349E+03    0.13247E-02   -0.11722E+00  6156   0.458E+00    0.160E-01
DAV:   2    -0.132446382845E+03   -0.22245E-02   -0.28314E-02  6602   0.655E-01    0.849E-02
DAV:   3    -0.132446216793E+03    0.16605E-03   -0.48924E-04  7084   0.101E-01    0.591E-02
DAV:   4    -0.132446103038E+03    0.11376E-03   -0.24918E-04  7176   0.918E-02    0.287E-02
DAV:   5    -0.132446054471E+03    0.48567E-04   -0.17242E-04  6966   0.643E-02    0.195E-02
DAV:   6    -0.132446025565E+03    0.28907E-04   -0.49782E-05  6078   0.448E-02    0.119E-02
DAV:   7    -0.132445977790E+03    0.47775E-04   -0.14356E-05  5116   0.563E-02    0.783E-03
DAV:   8    -0.132445934128E+03    0.43661E-04   -0.22928E-05  5242   0.652E-02    0.948E-03
DAV:   9    -0.132445856946E+03    0.77182E-04   -0.52665E-05  7200   0.123E-01    0.847E-03
DAV:  10    -0.132445794679E+03    0.62267E-04   -0.91377E-05  7960   0.129E-01    0.124E-02
DAV:  11    -0.132445777625E+03    0.17054E-04   -0.90460E-05  6474   0.597E-02    0.926E-03
DAV:  12    -0.132445750751E+03    0.26873E-04   -0.39543E-05  6606   0.903E-02    0.992E-03
DAV:  13    -0.132445733299E+03    0.17452E-04   -0.52792E-05  7168   0.130E-01    0.452E-03
DAV:  14    -0.132445740846E+03   -0.75475E-05   -0.84049E-05  6052   0.293E-02
  10 F= -.13244574E+03 E0= -.13244208E+03  d E =-.199143E-02
       N       E                     dE             d eps       ncg     rms          rms(c)
DAV:   1    -0.132445668544E+03    0.64755E-04   -0.15603E-01  6108   0.167E+00    0.599E-02
DAV:   2    -0.132445976104E+03   -0.30756E-03   -0.39058E-03  6628   0.240E-01    0.315E-02
DAV:   3    -0.132445955082E+03    0.21022E-04   -0.67704E-05  7044   0.377E-02    0.224E-02
DAV:   4    -0.132445945811E+03    0.92711E-05   -0.34673E-05  5390   0.285E-02    0.130E-02
DAV:   5    -0.132445938123E+03    0.76879E-05   -0.30311E-05  5242   0.237E-02    0.739E-03
DAV:   6    -0.132445935879E+03    0.22442E-05   -0.53062E-06  3614   0.145E-02
  11 F= -.13244594E+03 E0= -.13244222E+03  d E =-.218646E-02
       N       E                     dE             d eps       ncg     rms          rms(c)
DAV:   1    -0.132446871651E+03   -0.93353E-03   -0.48918E-02  6130   0.968E-01    0.403E-02
DAV:   2    -0.132446945205E+03   -0.73554E-04   -0.12148E-03  6708   0.147E-01    0.230E-02
DAV:   3    -0.132446928829E+03    0.16377E-04   -0.82239E-05  6502   0.316E-02    0.150E-02
DAV:   4    -0.132446921506E+03    0.73230E-05   -0.13275E-05  4252   0.126E-02    0.119E-02
DAV:   5    -0.132446914446E+03    0.70596E-05   -0.85449E-06  4116   0.196E-02    0.592E-03
DAV:   6    -0.132446909270E+03    0.51757E-05   -0.44791E-06  3934   0.197E-02
  12 F= -.13244691E+03 E0= -.13244320E+03  d E =-.973391E-03
       N       E                     dE             d eps       ncg     rms          rms(c)
DAV:   1    -0.132448281712E+03   -0.13673E-02   -0.43924E-01  6124   0.290E+00    0.121E-01
DAV:   2    -0.132449027778E+03   -0.74607E-03   -0.11152E-02  6718   0.438E-01    0.733E-02
DAV:   3    -0.132448838515E+03    0.18926E-03   -0.76292E-04  6984   0.850E-02    0.462E-02
DAV:   4    -0.132448779132E+03    0.59383E-04   -0.13076E-04  6718   0.382E-02    0.370E-02
DAV:   5    -0.132448743813E+03    0.35320E-04   -0.50520E-05  6696   0.416E-02    0.201E-02
DAV:   6    -0.132448714553E+03    0.29259E-04   -0.20277E-05  5410   0.491E-02    0.811E-03
DAV:   7    -0.132448689372E+03    0.25181E-04   -0.25765E-05  5510   0.564E-02    0.675E-03
DAV:   8    -0.132448684627E+03    0.47452E-05   -0.32581E-05  5260   0.266E-02
  13 F= -.13244868E+03 E0= -.13244500E+03  d E =-.274875E-02
       N       E                     dE             d eps       ncg     rms          rms(c)
DAV:   1    -0.132445533266E+03    0.31561E-02   -0.17567E+00  6124   0.581E+00    0.243E-01
DAV:   2    -0.132448529489E+03   -0.29962E-02   -0.44921E-02  6698   0.872E-01    0.149E-01
DAV:   3    -0.132447614031E+03    0.91546E-03   -0.33048E-03  6956   0.174E-01    0.891E-02
DAV:   4    -0.132447394999E+03    0.21903E-03   -0.52910E-04  7180   0.809E-02    0.712E-02
DAV:   5    -0.132447252817E+03    0.14218E-03   -0.18983E-04  7222   0.831E-02    0.389E-02
DAV:   6    -0.132447135122E+03    0.11770E-03   -0.94296E-05  7622   0.973E-02    0.158E-02
DAV:   7    -0.132447044216E+03    0.90906E-04   -0.12110E-04  8014   0.988E-02    0.141E-02
DAV:   8    -0.132447025298E+03    0.18919E-04   -0.94478E-05  6808   0.440E-02    0.164E-02
DAV:   9    -0.132447009677E+03    0.15620E-04   -0.54105E-06  3826   0.144E-02    0.137E-02
DAV:  10    -0.132446859407E+03    0.15027E-03   -0.23101E-04  7292   0.165E-01    0.299E-02
DAV:  11    -0.132446820675E+03    0.38732E-04   -0.91451E-05  7258   0.804E-02    0.290E-02
DAV:  12    -0.132446804588E+03    0.16087E-04   -0.15611E-04  6156   0.618E-02    0.770E-03
DAV:  13    -0.132446766074E+03    0.38514E-04   -0.54343E-05  7564   0.128E-01    0.130E-02
DAV:  14    -0.132446752950E+03    0.13124E-04   -0.73911E-05  7606   0.986E-02    0.173E-02
DAV:  15    -0.132446747757E+03    0.51936E-05   -0.46053E-05  6176   0.355E-02
  14 F= -.13244675E+03 E0= -.13244335E+03  d E =-.811878E-03
       N       E                     dE             d eps       ncg     rms          rms(c)
DAV:   1    -0.132447968564E+03   -0.12156E-02   -0.94639E-01  6124   0.430E+00    0.174E-01
DAV:   2    -0.132449490402E+03   -0.15218E-02   -0.23514E-02  6718   0.646E-01    0.106E-01
DAV:   3    -0.132449135518E+03    0.35488E-03   -0.17142E-03  6978   0.121E-01    0.675E-02
DAV:   4    -0.132449000366E+03    0.13515E-03   -0.28939E-04  7160   0.570E-02    0.532E-02
DAV:   5    -0.132448938814E+03    0.61552E-04   -0.11413E-04  7156   0.623E-02    0.284E-02
DAV:   6    -0.132448900685E+03    0.38129E-04   -0.65308E-05  7070   0.640E-02    0.109E-02
DAV:   7    -0.132448883997E+03    0.16688E-04   -0.69710E-05  5780   0.489E-02    0.887E-03
DAV:   8    -0.132448870975E+03    0.13022E-04   -0.38456E-05  4936   0.322E-02    0.749E-03
DAV:   9    -0.132448861167E+03    0.98084E-05   -0.46682E-06  4024   0.228E-02
  15 F= -.13244886E+03 E0= -.13244528E+03  d E =-.292529E-02
       N       E                     dE             d eps       ncg     rms          rms(c)
DAV:   1    -0.132449352271E+03   -0.48130E-03   -0.22337E-01  6478   0.207E+00    0.697E-02
DAV:   2    -0.132449786481E+03   -0.43421E-03   -0.52456E-03  6784   0.304E-01    0.414E-02
DAV:   3    -0.132449737002E+03    0.49479E-04   -0.18961E-04  6976   0.488E-02    0.282E-02
DAV:   4    -0.132449713587E+03    0.23415E-04   -0.53016E-05  5332   0.281E-02    0.216E-02
DAV:   5    -0.132449674306E+03    0.39281E-04   -0.54382E-05  6432   0.535E-02    0.100E-02
DAV:   6    -0.132449663724E+03    0.10582E-04   -0.28083E-05  5548   0.371E-02    0.728E-03
DAV:   7    -0.132449651403E+03    0.12321E-04   -0.13887E-05  4146   0.383E-02    0.491E-03
DAV:   8    -0.132449637641E+03    0.13762E-04   -0.12860E-05  4382   0.407E-02    0.474E-03
DAV:   9    -0.132449631996E+03    0.56445E-05   -0.18474E-05  4368   0.261E-02
  16 F= -.13244963E+03 E0= -.13244609E+03  d E =-.770829E-03
       N       E                     dE             d eps       ncg     rms          rms(c)
DAV:   1    -0.132449480094E+03    0.15755E-03   -0.44366E-01  6448   0.291E+00    0.950E-02
DAV:   2    -0.132450350930E+03   -0.87084E-03   -0.10275E-02  6632   0.418E-01    0.574E-02
DAV:   3    -0.132450247826E+03    0.10310E-03   -0.34341E-04  7032   0.645E-02    0.375E-02
DAV:   4    -0.132450203855E+03    0.43971E-04   -0.99441E-05  6284   0.443E-02    0.292E-02
DAV:   5    -0.132450134328E+03    0.69527E-04   -0.73347E-05  6426   0.766E-02    0.119E-02
DAV:   6    -0.132450110515E+03    0.23813E-04   -0.63714E-05  6858   0.591E-02    0.830E-03
DAV:   7    -0.132450092809E+03    0.17706E-04   -0.26132E-05  5084   0.418E-02    0.672E-03
DAV:   8    -0.132450071596E+03    0.21213E-04   -0.13543E-05  4498   0.404E-02    0.510E-03
DAV:   9    -0.132450052488E+03    0.19108E-04   -0.10939E-05  4418   0.411E-02    0.433E-03
DAV:  10    -0.132450015159E+03    0.37329E-04   -0.17116E-05  5412   0.936E-02    0.458E-03
DAV:  11    -0.132449984184E+03    0.30975E-04   -0.87110E-05  7894   0.144E-01    0.545E-03
DAV:  12    -0.132449988148E+03   -0.39639E-05   -0.85768E-05  6512   0.464E-02
  17 F= -.13244999E+03 E0= -.13244650E+03  d E =-.112698E-02
       N       E                     dE             d eps       ncg     rms          rms(c)
DAV:   1    -0.132450338341E+03   -0.35416E-03   -0.43680E-02  6132   0.900E-01    0.269E-02
DAV:   2    -0.132450424770E+03   -0.86429E-04   -0.10139E-03  6782   0.129E-01    0.178E-02
DAV:   3    -0.132450416167E+03    0.86027E-05   -0.39665E-05  5162   0.234E-02    0.130E-02
DAV:   4    -0.132450412764E+03    0.34033E-05   -0.75687E-06  3764   0.112E-02    0.968E-03
DAV:   5    -0.132450407678E+03    0.50865E-05   -0.94938E-06  3936   0.198E-02    0.417E-03
DAV:   6    -0.132450406571E+03    0.11067E-05   -0.57381E-06  3690   0.159E-02
  18 F= -.13245041E+03 E0= -.13244692E+03  d E =-.418423E-03
       N       E                     dE             d eps       ncg     rms          rms(c)
DAV:   1    -0.132450471078E+03   -0.63401E-04   -0.39215E-01  6124   0.270E+00    0.835E-02
DAV:   2    -0.132451276324E+03   -0.80525E-03   -0.92431E-03  6798   0.385E-01    0.538E-02
DAV:   3    -0.132451192606E+03    0.83718E-04   -0.35237E-04  7098   0.654E-02    0.395E-02
DAV:   4    -0.132451161177E+03    0.31428E-04   -0.66173E-05  6544   0.303E-02    0.281E-02
DAV:   5    -0.132451125284E+03    0.35893E-04   -0.85512E-05  6678   0.524E-02    0.114E-02
DAV:   6    -0.132451120821E+03    0.44636E-05   -0.33609E-05  6092   0.359E-02
  19 F= -.13245112E+03 E0= -.13244764E+03  d E =-.113267E-02
       N       E                     dE             d eps       ncg     rms          rms(c)
DAV:   1    -0.132451091642E+03    0.33642E-04   -0.50911E-02  6124   0.971E-01    0.317E-02
DAV:   2    -0.132451195433E+03   -0.10379E-03   -0.12475E-03  6806   0.144E-01    0.205E-02
DAV:   3    -0.132451182726E+03    0.12707E-04   -0.51172E-05  5800   0.286E-02    0.157E-02
DAV:   4    -0.132451176820E+03    0.59055E-05   -0.96824E-06  3812   0.137E-02    0.115E-02
DAV:   5    -0.132451165283E+03    0.11537E-04   -0.21977E-05  5188   0.353E-02    0.600E-03
DAV:   6    -0.132451163504E+03    0.17794E-05   -0.10380E-05  3698   0.200E-02
  20 F= -.13245116E+03 E0= -.13244768E+03  d E =-.117536E-02
       N       E                     dE             d eps       ncg     rms          rms(c)
DAV:   1    -0.132451471969E+03   -0.30669E-03   -0.42122E-02  6100   0.876E-01    0.271E-02
DAV:   2    -0.132451560972E+03   -0.89002E-04   -0.96639E-04  6838   0.122E-01    0.168E-02
DAV:   3    -0.132451551645E+03    0.93267E-05   -0.37345E-05  4694   0.190E-02    0.117E-02
DAV:   4    -0.132451547917E+03    0.37284E-05   -0.61580E-06  3632   0.105E-02    0.815E-03
DAV:   5    -0.132451543930E+03    0.39865E-05   -0.96010E-06  3972   0.235E-02    0.334E-03
DAV:   6    -0.132451543940E+03   -0.99408E-08   -0.60754E-06  3632   0.115E-02
  21 F= -.13245154E+03 E0= -.13244805E+03  d E =-.380436E-03
       N       E                     dE             d eps       ncg     rms          rms(c)
DAV:   1    -0.132451788238E+03   -0.24431E-03   -0.37784E-01  6084   0.263E+00    0.799E-02
DAV:   2    -0.132452589966E+03   -0.80173E-03   -0.86122E-03  6840   0.362E-01    0.498E-02
DAV:   3    -0.132452505997E+03    0.83969E-04   -0.34244E-04  7110   0.514E-02    0.342E-02
DAV:   4    -0.132452475873E+03    0.30124E-04   -0.44477E-05  4744   0.262E-02    0.235E-02
DAV:   5    -0.132452456284E+03    0.19589E-04   -0.91997E-05  6912   0.530E-02    0.906E-03
DAV:   6    -0.132452456974E+03   -0.68995E-06   -0.27078E-05  5452   0.222E-02
  22 F= -.13245246E+03 E0= -.13244895E+03  d E =-.129347E-02
       N       E                     dE             d eps       ncg     rms          rms(c)
DAV:   1    -0.132450503473E+03    0.19528E-02   -0.15112E+00  6084   0.526E+00    0.160E-01
DAV:   2    -0.132453719230E+03   -0.32158E-02   -0.34545E-02  6832   0.725E-01    0.101E-01
DAV:   3    -0.132453363835E+03    0.35540E-03   -0.13904E-03  7118   0.103E-01    0.684E-02
DAV:   4    -0.132453244274E+03    0.11956E-03   -0.18576E-04  6930   0.528E-02    0.467E-02
DAV:   5    -0.132453161508E+03    0.82766E-04   -0.30415E-04  7060   0.963E-02    0.159E-02
DAV:   6    -0.132453163699E+03   -0.21913E-05   -0.10411E-04  6834   0.439E-02    0.162E-02
DAV:   7    -0.132453158778E+03    0.49210E-05   -0.27674E-05  4992   0.254E-02
  23 F= -.13245316E+03 E0= -.13244962E+03  d E =-.199527E-02
       N       E                     dE             d eps       ncg     rms          rms(c)
DAV:   1    -0.132453047555E+03    0.11614E-03   -0.50529E-01  6076   0.301E+00    0.894E-02
DAV:   2    -0.132454059207E+03   -0.10117E-02   -0.11011E-02  6814   0.410E-01    0.517E-02
DAV:   3    -0.132453998061E+03    0.61146E-04   -0.33926E-04  7180   0.572E-02    0.366E-02
DAV:   4    -0.132453970565E+03    0.27496E-04   -0.96602E-05  5922   0.317E-02    0.258E-02
DAV:   5    -0.132453940663E+03    0.29902E-04   -0.10663E-04  6812   0.620E-02    0.859E-03
DAV:   6    -0.132453942525E+03   -0.18619E-05   -0.47914E-05  5924   0.299E-02
  24 F= -.13245394E+03 E0= -.13245042E+03  d E =-.783747E-03
       N       E                     dE             d eps       ncg     rms          rms(c)
DAV:   1    -0.132452344559E+03    0.15961E-02   -0.11938E+00  6076   0.463E+00    0.137E-01
DAV:   2    -0.132454717353E+03   -0.23728E-02   -0.26096E-02  6766   0.631E-01    0.804E-02
DAV:   3    -0.132454569011E+03    0.14834E-03   -0.89486E-04  7116   0.927E-02    0.576E-02
DAV:   4    -0.132454502689E+03    0.66323E-04   -0.27223E-04  7044   0.531E-02    0.411E-02
DAV:   5    -0.132454406815E+03    0.95874E-04   -0.25502E-04  7056   0.108E-01    0.135E-02
DAV:   6    -0.132454407734E+03   -0.91927E-06   -0.14580E-04  6614   0.554E-02    0.163E-02
DAV:   7    -0.132454401535E+03    0.61988E-05   -0.31267E-05  5122   0.243E-02
  25 F= -.13245440E+03 E0= -.13245089E+03  d E =-.124276E-02
       N       E                     dE             d eps       ncg     rms          rms(c)
DAV:   1    -0.132454330475E+03    0.77259E-04   -0.31645E-02  6076   0.755E-01    0.228E-02
DAV:   2    -0.132454384167E+03   -0.53691E-04   -0.68565E-04  6882   0.110E-01    0.155E-02
DAV:   3    -0.132454375558E+03    0.86089E-05   -0.36546E-05  5472   0.283E-02    0.117E-02
DAV:   4    -0.132454369149E+03    0.64088E-05   -0.86270E-06  3726   0.160E-02    0.859E-03
DAV:   5    -0.132454355280E+03    0.13869E-04   -0.85937E-06  4318   0.292E-02    0.524E-03
DAV:   6    -0.132454345033E+03    0.10247E-04   -0.86560E-06  4168   0.350E-02    0.537E-03
DAV:   7    -0.132454337141E+03    0.78918E-05   -0.19390E-05  5068   0.425E-02
  26 F= -.13245434E+03 E0= -.13245083E+03  d E =-.117836E-02
       N       E                     dE             d eps       ncg     rms          rms(c)
DAV:   1    -0.132454212047E+03    0.13299E-03   -0.25824E-01  6156   0.216E+00    0.658E-02
DAV:   2    -0.132454733679E+03   -0.52163E-03   -0.59095E-03  6738   0.303E-01    0.427E-02
DAV:   3    -0.132454694847E+03    0.38832E-04   -0.25859E-04  7072   0.592E-02    0.301E-02
DAV:   4    -0.132454677461E+03    0.17386E-04   -0.68897E-05  5488   0.294E-02    0.212E-02
DAV:   5    -0.132454648364E+03    0.29097E-04   -0.54785E-05  6190   0.457E-02    0.101E-02
DAV:   6    -0.132454635198E+03    0.13165E-04   -0.29299E-05  5186   0.401E-02    0.676E-03
DAV:   7    -0.132454631238E+03    0.39608E-05   -0.23073E-05  4510   0.254E-02
  27 F= -.13245463E+03 E0= -.13245112E+03  d E =-.294096E-03
       N       E                     dE             d eps       ncg     rms          rms(c)
DAV:   1    -0.132454603487E+03    0.31712E-04   -0.15796E-02  6216   0.536E-01    0.159E-02
DAV:   2    -0.132454630913E+03   -0.27426E-04   -0.39340E-04  7010   0.810E-02    0.130E-02
DAV:   3    -0.132454623398E+03    0.75153E-05   -0.40533E-05  4216   0.221E-02    0.947E-03
DAV:   4    -0.132454621225E+03    0.21726E-05   -0.41472E-06  3610   0.914E-03    0.813E-03
DAV:   5    -0.132454612170E+03    0.90554E-05   -0.42155E-06  3978   0.185E-02    0.551E-03
DAV:   6    -0.132454600574E+03    0.11596E-04   -0.71848E-06  4476   0.357E-02    0.558E-03
DAV:   7    -0.132454596041E+03    0.45326E-05   -0.10268E-05  3968   0.245E-02
  28 F= -.13245460E+03 E0= -.13245109E+03  d E =-.258899E-03
       N       E                     dE             d eps       ncg     rms          rms(c)
DAV:   1    -0.132454763691E+03   -0.16312E-03   -0.39855E-02  6088   0.851E-01    0.275E-02
DAV:   2    -0.132454840460E+03   -0.76769E-04   -0.11451E-03  7012   0.136E-01    0.219E-02
DAV:   3    -0.132454827652E+03    0.12808E-04   -0.20757E-04  6888   0.328E-02    0.175E-02
DAV:   4    -0.132454821886E+03    0.57656E-05   -0.12120E-05  3714   0.110E-02    0.129E-02
DAV:   5    -0.132454811720E+03    0.10166E-04   -0.16361E-05  4846   0.248E-02    0.526E-03
DAV:   6    -0.132454808877E+03    0.28434E-05   -0.61597E-06  3776   0.179E-02
  29 F= -.13245481E+03 E0= -.13245130E+03  d E =-.212836E-03
       N       E                     dE             d eps       ncg     rms          rms(c)
DAV:   1    -0.132454827364E+03   -0.15644E-04   -0.34129E-02  6084   0.784E-01    0.258E-02
DAV:   2    -0.132454880774E+03   -0.53410E-04   -0.97088E-04  7030   0.126E-01    0.189E-02
DAV:   3    -0.132454869591E+03    0.11184E-04   -0.24311E-04  6980   0.358E-02    0.158E-02
DAV:   4    -0.132454862567E+03    0.70239E-05   -0.11163E-05  3722   0.126E-02    0.118E-02
DAV:   5    -0.132454843253E+03    0.19314E-04   -0.24551E-05  5646   0.423E-02    0.532E-03
DAV:   6    -0.132454838965E+03    0.42876E-05   -0.11594E-05  4048   0.233E-02
  30 F= -.13245484E+03 E0= -.13245133E+03  d E =-.242925E-03
       N       E                     dE             d eps       ncg     rms          rms(c)
DAV:   1    -0.132455024627E+03   -0.18137E-03   -0.23908E-02  6132   0.672E-01    0.250E-02
DAV:   2    -0.132455072816E+03   -0.48189E-04   -0.66325E-04  6908   0.106E-01    0.169E-02
DAV:   3    -0.132455065213E+03    0.76035E-05   -0.34743E-05  4564   0.227E-02    0.126E-02
DAV:   4    -0.132455060599E+03    0.46138E-05   -0.18360E-05  3716   0.168E-02    0.820E-03
DAV:   5    -0.132455051180E+03    0.94185E-05   -0.12839E-05  4264   0.237E-02    0.464E-03
DAV:   6    -0.132455047444E+03    0.37359E-05   -0.71930E-06  3658   0.181E-02
  31 F= -.13245505E+03 E0= -.13245153E+03  d E =-.208479E-03
       N       E                     dE             d eps       ncg     rms          rms(c)
DAV:   1    -0.132455075777E+03   -0.24596E-04   -0.25772E-02  6082   0.699E-01    0.253E-02
DAV:   2    -0.132455122608E+03   -0.46831E-04   -0.74925E-04  6914   0.116E-01    0.180E-02
DAV:   3    -0.132455111176E+03    0.11432E-04   -0.76081E-05  6372   0.312E-02    0.141E-02
DAV:   4    -0.132455104870E+03    0.63058E-05   -0.12891E-05  3764   0.149E-02    0.105E-02
DAV:   5    -0.132455083290E+03    0.21580E-04   -0.13913E-05  4564   0.380E-02    0.580E-03
DAV:   6    -0.132455070545E+03    0.12745E-04   -0.13469E-05  4498   0.372E-02    0.639E-03
DAV:   7    -0.132455055100E+03    0.15445E-04   -0.24885E-05  5612   0.666E-02    0.605E-03
DAV:   8    -0.132455043322E+03    0.11778E-04   -0.22353E-05  5232   0.639E-02    0.942E-03
DAV:   9    -0.132455039917E+03    0.34051E-05   -0.27332E-05  4976   0.251E-02
  32 F= -.13245504E+03 E0= -.13245152E+03  d E =-.200952E-03
       N       E                     dE             d eps       ncg     rms          rms(c)
DAV:   1    -0.132455046080E+03   -0.27574E-05   -0.29359E-03  6214   0.236E-01    0.848E-03
DAV:   2    -0.132455051904E+03   -0.58244E-05   -0.81660E-05  6872   0.375E-02    0.768E-03
DAV:   3    -0.132455050054E+03    0.18506E-05   -0.57039E-06  3614   0.958E-03    0.561E-03
DAV:   4    -0.132455049405E+03    0.64903E-06   -0.11433E-06  3434   0.543E-03    0.407E-03
DAV:   5    -0.132455047773E+03    0.16313E-05   -0.13207E-06  3578   0.114E-02    0.188E-03
DAV:   6    -0.132455047039E+03    0.73380E-06   -0.12578E-06  3560   0.949E-03
  33 F= -.13245505E+03 E0= -.13245153E+03  d E =-.208074E-03
       N       E                     dE             d eps       ncg     rms          rms(c)
DAV:   1    -0.132455168177E+03   -0.12040E-03   -0.62750E-02  6468   0.108E+00    0.350E-02
DAV:   2    -0.132455303022E+03   -0.13485E-03   -0.15604E-03  6716   0.156E-01    0.223E-02
DAV:   3    -0.132455286223E+03    0.16800E-04   -0.12984E-04  6582   0.298E-02    0.161E-02
DAV:   4    -0.132455278532E+03    0.76914E-05   -0.13386E-05  3838   0.135E-02    0.112E-02
DAV:   5    -0.132455268994E+03    0.95375E-05   -0.14114E-05  4482   0.299E-02    0.402E-03
DAV:   6    -0.132455267834E+03    0.11596E-05   -0.10286E-05  3636   0.177E-02
  34 F= -.13245527E+03 E0= -.13245176E+03  d E =-.220795E-03
       N       E                     dE             d eps       ncg     rms          rms(c)
DAV:   1    -0.132455227573E+03    0.41421E-04   -0.80269E-02  6452   0.122E+00    0.399E-02
DAV:   2    -0.132455394860E+03   -0.16729E-03   -0.20756E-03  6754   0.180E-01    0.269E-02
DAV:   3    -0.132455364632E+03    0.30228E-04   -0.24015E-04  6938   0.402E-02    0.196E-02
DAV:   4    -0.132455351299E+03    0.13333E-04   -0.16567E-05  4076   0.175E-02    0.143E-02
DAV:   5    -0.132455322551E+03    0.28748E-04   -0.22004E-05  5782   0.490E-02    0.603E-03
DAV:   6    -0.132455313287E+03    0.92636E-05   -0.17222E-05  4628   0.323E-02
  35 F= -.13245531E+03 E0= -.13245180E+03  d E =-.266248E-03
       N       E                     dE             d eps       ncg     rms          rms(c)
DAV:   1    -0.132455423062E+03   -0.10051E-03   -0.75344E-02  6380   0.118E+00    0.418E-02
DAV:   2    -0.132455591325E+03   -0.16826E-03   -0.20110E-03  6762   0.177E-01    0.306E-02
DAV:   3    -0.132455546524E+03    0.44801E-04   -0.16036E-04  6738   0.392E-02    0.205E-02
DAV:   4    -0.132455532285E+03    0.14239E-04   -0.15395E-05  4016   0.177E-02    0.147E-02
DAV:   5    -0.132455504425E+03    0.27860E-04   -0.11376E-05  4516   0.375E-02    0.737E-03
DAV:   6    -0.132455483902E+03    0.20523E-04   -0.18795E-05  5106   0.418E-02    0.500E-03
DAV:   7    -0.132455461769E+03    0.22132E-04   -0.14866E-05  5042   0.556E-02    0.578E-03
DAV:   8    -0.132455438070E+03    0.23700E-04   -0.13175E-05  4780   0.628E-02    0.625E-03
DAV:   9    -0.132455431674E+03    0.63956E-05   -0.36752E-05  5692   0.338E-02
  36 F= -.13245543E+03 E0= -.13245191E+03  d E =-.118387E-03
       N       E                     dE             d eps       ncg     rms          rms(c)
DAV:   1    -0.132455431456E+03    0.66140E-05   -0.30412E-03  6520   0.237E-01    0.954E-03
DAV:   2    -0.132455435952E+03   -0.44964E-05   -0.98210E-05  6680   0.363E-02    0.795E-03
DAV:   3    -0.132455430249E+03    0.57030E-05   -0.22304E-05  4152   0.128E-02    0.437E-03
DAV:   4    -0.132455428093E+03    0.21563E-05   -0.11007E-06  3578   0.716E-03    0.347E-03
DAV:   5    -0.132455420304E+03    0.77884E-05   -0.11193E-06  3956   0.238E-02    0.239E-03
DAV:   6    -0.132455405230E+03    0.15075E-04   -0.98385E-06  4752   0.572E-02    0.309E-03
DAV:   7    -0.132455404124E+03    0.11054E-05   -0.17974E-05  4418   0.185E-02
  37 F= -.13245540E+03 E0= -.13245187E+03  d E =-.908373E-04
       N       E                     dE             d eps       ncg     rms          rms(c)
DAV:   1    -0.132455580550E+03   -0.17532E-03   -0.30462E-02  6436   0.757E-01    0.293E-02
DAV:   2    -0.132455646057E+03   -0.65507E-04   -0.94559E-04  6984   0.127E-01    0.222E-02
DAV:   3    -0.132455628008E+03    0.18049E-04   -0.15824E-04  6952   0.353E-02    0.162E-02
DAV:   4    -0.132455621653E+03    0.63545E-05   -0.12204E-05  3754   0.160E-02    0.113E-02
DAV:   5    -0.132455611564E+03    0.10089E-04   -0.94775E-06  4400   0.306E-02    0.508E-03
DAV:   6    -0.132455606915E+03    0.46492E-05   -0.98769E-06  4000   0.290E-02
  38 F= -.13245561E+03 E0= -.13245205E+03  d E =-.202791E-03
       N       E                     dE             d eps       ncg     rms          rms(c)
DAV:   1    -0.132455612912E+03   -0.13472E-05   -0.10373E-02  6260   0.446E-01    0.168E-02
DAV:   2    -0.132455632710E+03   -0.19799E-04   -0.36783E-04  6984   0.824E-02    0.150E-02
DAV:   3    -0.132455624284E+03    0.84268E-05   -0.57837E-05  5338   0.237E-02    0.120E-02
DAV:   4    -0.132455621094E+03    0.31892E-05   -0.43303E-06  3648   0.972E-03    0.959E-03
DAV:   5    -0.132455608489E+03    0.12605E-04   -0.98378E-06  4214   0.295E-02    0.456E-03
DAV:   6    -0.132455602021E+03    0.64684E-05   -0.63405E-06  3884   0.264E-02
  39 F= -.13245560E+03 E0= -.13245204E+03  d E =-.197896E-03
       N       E                     dE             d eps       ncg     rms          rms(c)
DAV:   1    -0.132455737933E+03   -0.12944E-03   -0.13787E-02  6552   0.498E-01    0.179E-02
DAV:   2    -0.132455756671E+03   -0.18739E-04   -0.41240E-04  6934   0.824E-02    0.161E-02
DAV:   3    -0.132455745106E+03    0.11565E-04   -0.40489E-05  4298   0.225E-02    0.113E-02
DAV:   4    -0.132455739111E+03    0.59958E-05   -0.81616E-06  3578   0.136E-02    0.846E-03
DAV:   5    -0.132455719705E+03    0.19406E-04   -0.91170E-06  4196   0.335E-02    0.476E-03
DAV:   6    -0.132455700535E+03    0.19170E-04   -0.12088E-05  4660   0.429E-02    0.406E-03
DAV:   7    -0.132455669268E+03    0.31267E-04   -0.25719E-05  6176   0.874E-02    0.544E-03
DAV:   8    -0.132455650425E+03    0.18843E-04   -0.34936E-05  5986   0.715E-02    0.507E-03
DAV:   9    -0.132455645992E+03    0.44332E-05   -0.36030E-05  5756   0.386E-02
  40 F= -.13245565E+03 E0= -.13245207E+03  d E =-.439712E-04
       N       E                     dE             d eps       ncg     rms          rms(c)
DAV:   1    -0.132455639596E+03    0.10829E-04   -0.25519E-03  6676   0.214E-01    0.873E-03
DAV:   2    -0.132455642721E+03   -0.31250E-05   -0.64290E-05  6556   0.344E-02    0.698E-03
DAV:   3    -0.132455641486E+03    0.12352E-05   -0.43841E-06  3590   0.873E-03    0.497E-03
DAV:   4    -0.132455640733E+03    0.75300E-06   -0.17426E-06  3524   0.603E-03    0.327E-03
DAV:   5    -0.132455639795E+03    0.93841E-06   -0.17485E-06  3622   0.880E-03    0.142E-03
DAV:   6    -0.132455639634E+03    0.16128E-06   -0.93689E-07  3434   0.620E-03
  41 F= -.13245564E+03 E0= -.13245208E+03  d E =-.376127E-04
       N       E                     dE             d eps       ncg     rms          rms(c)
DAV:   1    -0.132455736807E+03   -0.97012E-04   -0.16372E-02  6460   0.546E-01    0.197E-02
DAV:   2    -0.132455766963E+03   -0.30156E-04   -0.50194E-04  6898   0.917E-02    0.148E-02
DAV:   3    -0.132455760443E+03    0.65200E-05   -0.98238E-05  6332   0.273E-02    0.116E-02
DAV:   4    -0.132455757011E+03    0.34321E-05   -0.64092E-06  3602   0.109E-02    0.883E-03
DAV:   5    -0.132455748176E+03    0.88353E-05   -0.91422E-06  4348   0.286E-02    0.418E-03
DAV:   6    -0.132455744818E+03    0.33577E-05   -0.76819E-06  3836   0.234E-02
  42 F= -.13245574E+03 E0= -.13245217E+03  d E =-.105185E-03
