       N       E                     dE             d eps       ncg     rms          rms(c)
DAV:   1     0.512505573194E+03    0.51251E+03   -0.40594E+04  6116   0.130E+03
DAV:   2    -0.792827331508E+02   -0.59179E+03   -0.55840E+03  7928   0.254E+02
DAV:   3    -0.146283623764E+03   -0.67001E+02   -0.66586E+02  7128   0.916E+01
DAV:   4    -0.147666709358E+03   -0.13831E+01   -0.13798E+01  7240   0.144E+01
DAV:   5    -0.147701545074E+03   -0.34836E-01   -0.34807E-01  7668   0.223E+00    0.221E+01
DAV:   6    -0.132717030594E+03    0.14985E+02   -0.82556E+01  6970   0.290E+01    0.738E+00
DAV:   7    -0.132567157499E+03    0.14987E+00   -0.18829E+00  6700   0.500E+00    0.458E+00
DAV:   8    -0.132434471593E+03    0.13269E+00   -0.62804E-01  6960   0.390E+00    0.104E+00
DAV:   9    -0.132409493449E+03    0.24978E-01   -0.88750E-02  7010   0.131E+00    0.605E-01
DAV:  10    -0.132408354317E+03    0.11391E-02   -0.42241E-02  6996   0.725E-01    0.337E-01
DAV:  11    -0.132412604622E+03   -0.42503E-02   -0.22435E-02  7288   0.571E-01    0.274E-01
DAV:  12    -0.132412938717E+03   -0.33409E-03   -0.56800E-03  8018   0.308E-01    0.180E-01
DAV:  13    -0.132412978027E+03   -0.39310E-04   -0.47594E-03  7020   0.268E-01    0.886E-02
DAV:  14    -0.132412880582E+03    0.97445E-04   -0.15094E-03  6938   0.119E-01    0.577E-02
DAV:  15    -0.132412774652E+03    0.10593E-03   -0.46668E-04  6840   0.109E-01    0.336E-02
DAV:  16    -0.132412284600E+03    0.49005E-03   -0.85643E-04  7406   0.231E-01    0.331E-02
DAV:  17    -0.132411933480E+03    0.35112E-03   -0.41841E-04  7658   0.173E-01    0.263E-02
DAV:  18    -0.132411477067E+03    0.45641E-03   -0.26968E-04  9192   0.216E-01    0.153E-02
DAV:  19    -0.132411121521E+03    0.35555E-03   -0.37934E-04  8104   0.260E-01    0.248E-02
DAV:  20    -0.132410952858E+03    0.16866E-03   -0.49334E-04  9256   0.282E-01    0.191E-02
DAV:  21    -0.132410860105E+03    0.92752E-04   -0.45331E-04  8680   0.305E-01    0.232E-02
DAV:  22    -0.132410893501E+03   -0.33396E-04   -0.57918E-04  6994   0.949E-02    0.276E-02
DAV:  23    -0.132410885703E+03    0.77985E-05   -0.29860E-05  5688   0.214E-02
   1 F= -.13241089E+03 E0= -.13240659E+03  d E =-.132411E+03
       N       E                     dE             d eps       ncg     rms          rms(c)
DAV:   1    -0.132412187145E+03   -0.12936E-02   -0.22049E-02  6686   0.658E-01    0.346E-02
DAV:   2    -0.132412266511E+03   -0.79366E-04   -0.12098E-03  7202   0.139E-01    0.382E-02
DAV:   3    -0.132412189294E+03    0.77217E-04   -0.27746E-04  6690   0.434E-02    0.214E-02
DAV:   4    -0.132412175593E+03    0.13701E-04   -0.16784E-05  4256   0.188E-02    0.149E-02
DAV:   5    -0.132412150558E+03    0.25035E-04   -0.29365E-05  6162   0.425E-02    0.642E-03
DAV:   6    -0.132412140038E+03    0.10520E-04   -0.19502E-05  5434   0.407E-02    0.475E-03
DAV:   7    -0.132412135926E+03    0.41121E-05   -0.20818E-05  5414   0.391E-02
   2 F= -.13241214E+03 E0= -.13240787E+03  d E =-.125022E-02
       N       E                     dE             d eps       ncg     rms          rms(c)
DAV:   1    -0.132413361085E+03   -0.12210E-02   -0.94907E-02  6502   0.136E+00    0.655E-02
DAV:   2    -0.132413709742E+03   -0.34866E-03   -0.47878E-03  7178   0.264E-01    0.756E-02
DAV:   3    -0.132413396884E+03    0.31286E-03   -0.10115E-03  6940   0.790E-02    0.414E-02
DAV:   4    -0.132413351678E+03    0.45205E-04   -0.65546E-05  6780   0.363E-02    0.280E-02
DAV:   5    -0.132413275495E+03    0.76184E-04   -0.60246E-05  6778   0.663E-02    0.135E-02
DAV:   6    -0.132413230629E+03    0.44866E-04   -0.80951E-05  7436   0.830E-02    0.751E-03
DAV:   7    -0.132413222541E+03    0.80878E-05   -0.72491E-05  6678   0.528E-02
   3 F= -.13241322E+03 E0= -.13240896E+03  d E =-.233684E-02
       N       E                     dE             d eps       ncg     rms          rms(c)
DAV:   1    -0.132413959765E+03   -0.72914E-03   -0.32039E-02  6332   0.749E-01    0.277E-02
DAV:   2    -0.132414024031E+03   -0.64266E-04   -0.76844E-04  6650   0.104E-01    0.158E-02
DAV:   3    -0.132414019691E+03    0.43407E-05   -0.30621E-05  4872   0.174E-02    0.108E-02
DAV:   4    -0.132414016961E+03    0.27295E-05   -0.17798E-05  3808   0.109E-02    0.755E-03
DAV:   5    -0.132414015252E+03    0.17095E-05   -0.76999E-06  3302   0.103E-02    0.292E-03
DAV:   6    -0.132414015413E+03   -0.16133E-06   -0.60601E-06  3110   0.639E-03
   4 F= -.13241402E+03 E0= -.13240978E+03  d E =-.792872E-03
       N       E                     dE             d eps       ncg     rms          rms(c)
DAV:   1    -0.132415513687E+03   -0.14984E-02   -0.28821E-01  6204   0.224E+00    0.748E-02
DAV:   2    -0.132416085992E+03   -0.57231E-03   -0.68258E-03  6688   0.310E-01    0.443E-02
DAV:   3    -0.132416040978E+03    0.45014E-04   -0.19393E-04  7304   0.596E-02    0.316E-02
DAV:   4    -0.132416018288E+03    0.22690E-04   -0.91026E-05  6244   0.340E-02    0.233E-02
DAV:   5    -0.132415988105E+03    0.30183E-04   -0.37038E-05  6264   0.435E-02    0.107E-02
DAV:   6    -0.132415976706E+03    0.11399E-04   -0.34065E-05  6098   0.464E-02    0.585E-03
DAV:   7    -0.132415976646E+03    0.60118E-07   -0.27338E-05  4452   0.202E-02
   5 F= -.13241598E+03 E0= -.13241180E+03  d E =-.275411E-02
       N       E                     dE             d eps       ncg     rms          rms(c)
DAV:   1    -0.132416068508E+03   -0.91802E-04   -0.11546E+00  6284   0.450E+00    0.148E-01
DAV:   2    -0.132418313892E+03   -0.22454E-02   -0.27248E-02  6724   0.623E-01    0.897E-02
DAV:   3    -0.132418108378E+03    0.20551E-03   -0.79056E-04  7302   0.128E-01    0.633E-02
DAV:   4    -0.132418009528E+03    0.98850E-04   -0.34936E-04  6954   0.730E-02    0.470E-02
DAV:   5    -0.132417866839E+03    0.14269E-03   -0.14527E-04  7200   0.941E-02    0.227E-02
DAV:   6    -0.132417796168E+03    0.70671E-04   -0.18063E-04  7718   0.109E-01    0.135E-02
DAV:   7    -0.132417791289E+03    0.48790E-05   -0.14513E-04  6672   0.460E-02    0.122E-02
DAV:   8    -0.132417763961E+03    0.27328E-04   -0.80029E-06  4364   0.446E-02    0.747E-03
DAV:   9    -0.132417712017E+03    0.51943E-04   -0.43144E-05  6588   0.104E-01    0.794E-03
DAV:  10    -0.132417676759E+03    0.35258E-04   -0.66069E-05  7106   0.957E-02    0.697E-03
DAV:  11    -0.132417654791E+03    0.21969E-04   -0.36558E-05  6218   0.900E-02    0.751E-03
DAV:  12    -0.132417641711E+03    0.13079E-04   -0.57832E-05  6964   0.733E-02    0.391E-03
DAV:  13    -0.132417636739E+03    0.49728E-05   -0.33594E-05  5662   0.380E-02
   6 F= -.13241764E+03 E0= -.13241358E+03  d E =-.441420E-02
       N       E                     dE             d eps       ncg     rms          rms(c)
DAV:   1    -0.132418649285E+03   -0.10076E-02   -0.14446E-01  6202   0.163E+00    0.578E-02
DAV:   2    -0.132418952510E+03   -0.30323E-03   -0.35905E-03  6696   0.240E-01    0.294E-02
DAV:   3    -0.132418938053E+03    0.14458E-04   -0.99867E-05  7242   0.407E-02    0.233E-02
DAV:   4    -0.132418927994E+03    0.10058E-04   -0.26188E-05  4306   0.186E-02    0.172E-02
DAV:   5    -0.132418918351E+03    0.96439E-05   -0.46804E-05  6322   0.359E-02    0.905E-03
DAV:   6    -0.132418916429E+03    0.19212E-05   -0.12851E-05  3714   0.207E-02
   7 F= -.13241892E+03 E0= -.13241493E+03  d E =-.127969E-02
       N       E                     dE             d eps       ncg     rms          rms(c)
DAV:   1    -0.132419084015E+03   -0.16566E-03   -0.12974E+00  6156   0.488E+00    0.167E-01
DAV:   2    -0.132421778460E+03   -0.26944E-02   -0.31612E-02  6646   0.710E-01    0.881E-02
DAV:   3    -0.132421635253E+03    0.14321E-03   -0.71272E-04  7204   0.111E-01    0.663E-02
DAV:   4    -0.132421567836E+03    0.67417E-04   -0.28778E-04  6962   0.612E-02    0.480E-02
DAV:   5    -0.132421471683E+03    0.96153E-04   -0.33776E-04  6924   0.983E-02    0.232E-02
DAV:   6    -0.132421455196E+03    0.16487E-04   -0.12617E-04  6920   0.585E-02    0.215E-02
DAV:   7    -0.132421445077E+03    0.10120E-04   -0.76537E-05  5864   0.350E-02    0.123E-02
DAV:   8    -0.132421428677E+03    0.16400E-04   -0.25170E-05  4342   0.334E-02    0.749E-03
DAV:   9    -0.132421411344E+03    0.17333E-04   -0.15584E-05  4734   0.462E-02    0.847E-03
DAV:  10    -0.132421396935E+03    0.14409E-04   -0.13323E-05  4518   0.433E-02    0.749E-03
DAV:  11    -0.132421375895E+03    0.21040E-04   -0.27177E-05  5694   0.706E-02    0.741E-03
DAV:  12    -0.132421364353E+03    0.11542E-04   -0.27006E-05  5220   0.489E-02    0.950E-03
DAV:  13    -0.132421348972E+03    0.15381E-04   -0.34252E-05  5974   0.544E-02    0.940E-03
DAV:  14    -0.132421335159E+03    0.13814E-04   -0.15241E-05  5276   0.836E-02    0.789E-03
DAV:  15    -0.132421333946E+03    0.12129E-05   -0.51084E-05  6186   0.516E-02
   8 F= -.13242133E+03 E0= -.13241750E+03  d E =-.369721E-02
       N       E                     dE             d eps       ncg     rms          rms(c)
DAV:   1    -0.132410330808E+03    0.11004E-01   -0.51872E+00  6132   0.976E+00    0.333E-01
DAV:   2    -0.132421309717E+03   -0.10979E-01   -0.12813E-01  6582   0.141E+00    0.178E-01
DAV:   3    -0.132420714586E+03    0.59513E-03   -0.22078E-03  7206   0.208E-01    0.128E-01
DAV:   4    -0.132420434902E+03    0.27968E-03   -0.91012E-04  6962   0.147E-01    0.790E-02
DAV:   5    -0.132420177389E+03    0.25751E-03   -0.95038E-04  6906   0.155E-01    0.459E-02
DAV:   6    -0.132420120484E+03    0.56905E-04   -0.25414E-04  6928   0.882E-02    0.350E-02
DAV:   7    -0.132420051685E+03    0.68800E-04   -0.15528E-04  7140   0.822E-02    0.162E-02
DAV:   8    -0.132420003347E+03    0.48337E-04   -0.84718E-05  7682   0.793E-02    0.196E-02
DAV:   9    -0.132419971094E+03    0.32253E-04   -0.68580E-05  6434   0.552E-02    0.114E-02
DAV:  10    -0.132419928709E+03    0.42385E-04   -0.30852E-05  5380   0.616E-02    0.877E-03
DAV:  11    -0.132419886744E+03    0.41964E-04   -0.25310E-05  4986   0.590E-02    0.813E-03
DAV:  12    -0.132419827741E+03    0.59004E-04   -0.30735E-05  6358   0.881E-02    0.584E-03
DAV:  13    -0.132419720515E+03    0.10723E-03   -0.21610E-04  9006   0.262E-01    0.124E-02
DAV:  14    -0.132419727266E+03   -0.67507E-05   -0.24244E-04  6752   0.878E-02    0.933E-03
DAV:  15    -0.132419731472E+03   -0.42060E-05   -0.94079E-05  6002   0.380E-02
   9 F= -.13241973E+03 E0= -.13241615E+03  d E =-.209473E-02
       N       E                     dE             d eps       ncg     rms          rms(c)
DAV:   1    -0.132417218807E+03    0.25085E-02   -0.24953E+00  6156   0.668E+00    0.235E-01
DAV:   2    -0.132422519476E+03   -0.53007E-02   -0.62331E-02  6640   0.970E-01    0.122E-01
DAV:   3    -0.132422234502E+03    0.28497E-03   -0.11549E-03  7166   0.153E-01    0.922E-02
DAV:   4    -0.132422106403E+03    0.12810E-03   -0.49286E-04  6914   0.987E-02    0.600E-02
DAV:   5    -0.132421959023E+03    0.14738E-03   -0.60273E-04  6886   0.126E-01    0.357E-02
DAV:   6    -0.132421929630E+03    0.29393E-04   -0.17824E-04  6918   0.663E-02    0.306E-02
DAV:   7    -0.132421900884E+03    0.28746E-04   -0.14796E-04  6920   0.581E-02    0.133E-02
DAV:   8    -0.132421880926E+03    0.19958E-04   -0.76454E-05  6466   0.481E-02    0.153E-02
DAV:   9    -0.132421865559E+03    0.15367E-04   -0.22838E-05  4522   0.358E-02    0.135E-02
DAV:  10    -0.132421835829E+03    0.29730E-04   -0.22403E-05  5210   0.604E-02    0.495E-03
DAV:  11    -0.132421817018E+03    0.18811E-04   -0.35109E-05  5870   0.537E-02    0.836E-03
DAV:  12    -0.132421797447E+03    0.19571E-04   -0.15166E-05  4782   0.489E-02    0.377E-03
DAV:  13    -0.132421762543E+03    0.34903E-04   -0.54535E-05  7446   0.134E-01    0.101E-02
DAV:  14    -0.132421756008E+03    0.65349E-05   -0.64989E-05  6688   0.704E-02
  10 F= -.13242176E+03 E0= -.13241800E+03  d E =-.411927E-02
       N       E                     dE             d eps       ncg     rms          rms(c)
DAV:   1    -0.132422812087E+03   -0.10495E-02   -0.32230E-01  6132   0.242E+00    0.805E-02
DAV:   2    -0.132423451873E+03   -0.63979E-03   -0.72564E-03  6700   0.336E-01    0.464E-02
DAV:   3    -0.132423399940E+03    0.51933E-04   -0.21981E-04  7008   0.462E-02    0.311E-02
DAV:   4    -0.132423373441E+03    0.26499E-04   -0.56206E-05  5286   0.267E-02    0.229E-02
DAV:   5    -0.132423358837E+03    0.14604E-04   -0.52095E-05  6832   0.416E-02    0.717E-03
DAV:   6    -0.132423359404E+03   -0.56727E-06   -0.18173E-05  4634   0.200E-02
  11 F= -.13242336E+03 E0= -.13241966E+03  d E =-.160340E-02
       N       E                     dE             d eps       ncg     rms          rms(c)
DAV:   1    -0.132421020321E+03    0.23385E-02   -0.28962E+00  6132   0.727E+00    0.241E-01
DAV:   2    -0.132426613884E+03   -0.55936E-02   -0.64750E-02  6654   0.101E+00    0.133E-01
DAV:   3    -0.132426239003E+03    0.37488E-03   -0.14203E-03  7380   0.148E-01    0.860E-02
DAV:   4    -0.132426085853E+03    0.15315E-03   -0.47968E-04  7530   0.836E-02    0.665E-02
DAV:   5    -0.132425949645E+03    0.13621E-03   -0.31876E-04  6926   0.105E-01    0.231E-02
DAV:   6    -0.132425945297E+03    0.43484E-05   -0.16141E-04  7158   0.679E-02    0.165E-02
DAV:   7    -0.132425939175E+03    0.61219E-05   -0.62591E-05  5950   0.390E-02
  12 F= -.13242594E+03 E0= -.13242243E+03  d E =-.418317E-02
       N       E                     dE             d eps       ncg     rms          rms(c)
DAV:   1    -0.132425343137E+03    0.60216E-03   -0.40928E-01  6132   0.275E+00    0.909E-02
DAV:   2    -0.132426118864E+03   -0.77573E-03   -0.91734E-03  6742   0.384E-01    0.494E-02
DAV:   3    -0.132426062326E+03    0.56538E-04   -0.20299E-04  7442   0.614E-02    0.320E-02
DAV:   4    -0.132426038931E+03    0.23395E-04   -0.71802E-05  6088   0.334E-02    0.247E-02
DAV:   5    -0.132426009009E+03    0.29922E-04   -0.51343E-05  6516   0.490E-02    0.869E-03
DAV:   6    -0.132426002438E+03    0.65714E-05   -0.29942E-05  5362   0.349E-02
  13 F= -.13242600E+03 E0= -.13242259E+03  d E =-.424643E-02
       N       E                     dE             d eps       ncg     rms          rms(c)
DAV:   1    -0.132426378833E+03   -0.36982E-03   -0.38288E-01  6092   0.265E+00    0.835E-02
DAV:   2    -0.132427149904E+03   -0.77107E-03   -0.86118E-03  6698   0.367E-01    0.459E-02
DAV:   3    -0.132427101234E+03    0.48670E-04   -0.21800E-04  7412   0.573E-02    0.318E-02
DAV:   4    -0.132427078205E+03    0.23029E-04   -0.46366E-05  5424   0.228E-02    0.234E-02
DAV:   5    -0.132427050164E+03    0.28041E-04   -0.70279E-05  6818   0.406E-02    0.110E-02
DAV:   6    -0.132427042978E+03    0.71860E-05   -0.18548E-05  4564   0.268E-02
  14 F= -.13242704E+03 E0= -.13242364E+03  d E =-.104054E-02
       N       E                     dE             d eps       ncg     rms          rms(c)
DAV:   1    -0.132423976273E+03    0.30739E-02   -0.22401E+00  6092   0.641E+00    0.198E-01
DAV:   2    -0.132428509988E+03   -0.45337E-02   -0.50303E-02  6706   0.885E-01    0.110E-01
DAV:   3    -0.132428247149E+03    0.26284E-03   -0.10781E-03  7378   0.131E-01    0.756E-02
DAV:   4    -0.132428136928E+03    0.11022E-03   -0.25317E-04  6860   0.559E-02    0.549E-02
DAV:   5    -0.132428008344E+03    0.12858E-03   -0.35344E-04  7054   0.899E-02    0.233E-02
DAV:   6    -0.132427986386E+03    0.21958E-04   -0.10131E-04  7084   0.557E-02    0.208E-02
DAV:   7    -0.132427963513E+03    0.22874E-04   -0.10721E-04  6824   0.611E-02    0.119E-02
DAV:   8    -0.132427946852E+03    0.16661E-04   -0.56780E-05  5720   0.380E-02    0.119E-02
DAV:   9    -0.132427933306E+03    0.13546E-04   -0.99639E-06  3934   0.178E-02    0.861E-03
DAV:  10    -0.132427896572E+03    0.36734E-04   -0.29823E-05  6028   0.496E-02    0.847E-03
DAV:  11    -0.132427863666E+03    0.32906E-04   -0.24004E-05  5932   0.735E-02    0.110E-02
DAV:  12    -0.132427838737E+03    0.24929E-04   -0.82480E-05  7428   0.107E-01    0.726E-03
DAV:  13    -0.132427835581E+03    0.31562E-05   -0.75931E-05  6644   0.694E-02
  15 F= -.13242784E+03 E0= -.13242447E+03  d E =-.183314E-02
       N       E                     dE             d eps       ncg     rms          rms(c)
DAV:   1    -0.132428054283E+03   -0.21555E-03   -0.24315E-01  6208   0.210E+00    0.618E-02
DAV:   2    -0.132428557498E+03   -0.50322E-03   -0.53122E-03  6726   0.284E-01    0.343E-02
DAV:   3    -0.132428532498E+03    0.25000E-04   -0.62123E-05  6710   0.324E-02    0.231E-02
DAV:   4    -0.132428522206E+03    0.10291E-04   -0.38907E-05  4518   0.264E-02    0.143E-02
DAV:   5    -0.132428513965E+03    0.82417E-05   -0.49549E-05  6154   0.319E-02    0.711E-03
DAV:   6    -0.132428513887E+03    0.77536E-07   -0.10874E-05  3412   0.137E-02
  16 F= -.13242851E+03 E0= -.13242515E+03  d E =-.678307E-03
       N       E                     dE             d eps       ncg     rms          rms(c)
DAV:   1    -0.132426000224E+03    0.25137E-02   -0.21902E+00  6172   0.631E+00    0.186E-01
DAV:   2    -0.132430525111E+03   -0.45249E-02   -0.47690E-02  6532   0.851E-01    0.102E-01
DAV:   3    -0.132430298995E+03    0.22612E-03   -0.49657E-04  7396   0.943E-02    0.684E-02
DAV:   4    -0.132430193108E+03    0.10589E-03   -0.38952E-04  7038   0.952E-02    0.391E-02
DAV:   5    -0.132430117504E+03    0.75605E-04   -0.40488E-04  7014   0.965E-02    0.190E-02
DAV:   6    -0.132430115040E+03    0.24630E-05   -0.97779E-05  6432   0.378E-02
  17 F= -.13243012E+03 E0= -.13242677E+03  d E =-.227946E-02
       N       E                     dE             d eps       ncg     rms          rms(c)
DAV:   1    -0.132414625618E+03    0.15492E-01   -0.87560E+00  6156   0.126E+01    0.375E-01
DAV:   2    -0.132432872301E+03   -0.18247E-01   -0.19257E-01  6506   0.171E+00    0.208E-01
DAV:   3    -0.132431925515E+03    0.94679E-03   -0.19285E-03  7402   0.191E-01    0.137E-01
DAV:   4    -0.132431392036E+03    0.53348E-03   -0.19855E-03  7140   0.225E-01    0.687E-02
DAV:   5    -0.132431146997E+03    0.24504E-03   -0.19612E-03  6896   0.179E-01    0.403E-02
DAV:   6    -0.132431113672E+03    0.33326E-04   -0.33289E-04  6734   0.611E-02    0.343E-02
DAV:   7    -0.132431061252E+03    0.52420E-04   -0.11319E-04  6494   0.313E-02    0.203E-02
DAV:   8    -0.132430966077E+03    0.95175E-04   -0.60385E-05  6736   0.590E-02    0.159E-02
DAV:   9    -0.132430875529E+03    0.90548E-04   -0.30912E-05  5738   0.782E-02    0.193E-02
DAV:  10    -0.132430720122E+03    0.15541E-03   -0.15539E-04  9252   0.185E-01    0.187E-02
DAV:  11    -0.132430630400E+03    0.89721E-04   -0.14671E-04  8198   0.130E-01    0.197E-02
DAV:  12    -0.132430532448E+03    0.97953E-04   -0.10202E-04  7278   0.143E-01    0.102E-02
DAV:  13    -0.132430460645E+03    0.71802E-04   -0.16375E-04  8234   0.226E-01    0.121E-02
DAV:  14    -0.132430478979E+03   -0.18334E-04   -0.31615E-04  6914   0.993E-02    0.740E-03
DAV:  15    -0.132430485949E+03   -0.69702E-05   -0.98941E-05  6062   0.366E-02
  18 F= -.13243049E+03 E0= -.13242721E+03  d E =-.265037E-02
       N       E                     dE             d eps       ncg     rms          rms(c)
DAV:   1    -0.132428822846E+03    0.16561E-02   -0.10087E+00  6168   0.426E+00    0.127E-01
DAV:   2    -0.132430940892E+03   -0.21180E-02   -0.22359E-02  6532   0.575E-01    0.714E-02
DAV:   3    -0.132430830123E+03    0.11077E-03   -0.22133E-04  7436   0.667E-02    0.477E-02
DAV:   4    -0.132430776898E+03    0.53225E-04   -0.23632E-04  7002   0.716E-02    0.249E-02
DAV:   5    -0.132430747599E+03    0.29299E-04   -0.22982E-04  6858   0.582E-02    0.149E-02
DAV:   6    -0.132430745542E+03    0.20570E-05   -0.35697E-05  5184   0.212E-02
  19 F= -.13243075E+03 E0= -.13242744E+03  d E =-.290996E-02
       N       E                     dE             d eps       ncg     rms          rms(c)
DAV:   1    -0.132430571829E+03    0.17577E-03   -0.88145E-01  6076   0.399E+00    0.116E-01
DAV:   2    -0.132432373404E+03   -0.18016E-02   -0.19464E-02  6634   0.545E-01    0.659E-02
DAV:   3    -0.132432286478E+03    0.86927E-04   -0.29810E-04  7374   0.710E-02    0.464E-02
DAV:   4    -0.132432244650E+03    0.41828E-04   -0.11072E-04  6888   0.409E-02    0.281E-02
DAV:   5    -0.132432207696E+03    0.36954E-04   -0.16918E-04  6866   0.584E-02    0.174E-02
DAV:   6    -0.132432203116E+03    0.45803E-05   -0.51947E-05  5870   0.291E-02
  20 F= -.13243220E+03 E0= -.13242891E+03  d E =-.145757E-02
       N       E                     dE             d eps       ncg     rms          rms(c)
DAV:   1    -0.132424783382E+03    0.74243E-02   -0.46208E+00  6076   0.915E+00    0.282E-01
DAV:   2    -0.132434390862E+03   -0.96075E-02   -0.10375E-01  6602   0.126E+00    0.150E-01
DAV:   3    -0.132433968404E+03    0.42246E-03   -0.15365E-03  7322   0.166E-01    0.105E-01
DAV:   4    -0.132433753069E+03    0.21533E-03   -0.84089E-04  7072   0.117E-01    0.564E-02
DAV:   5    -0.132433654441E+03    0.98628E-04   -0.10233E-03  6820   0.115E-01    0.431E-02
DAV:   6    -0.132433626054E+03    0.28387E-04   -0.25133E-04  6756   0.600E-02    0.370E-02
DAV:   7    -0.132433603896E+03    0.22158E-04   -0.88830E-05  6372   0.480E-02    0.215E-02
DAV:   8    -0.132433572563E+03    0.31333E-04   -0.48728E-05  6588   0.719E-02    0.111E-02
DAV:   9    -0.132433562255E+03    0.10308E-04   -0.40317E-05  5742   0.353E-02    0.112E-02
DAV:  10    -0.132433536759E+03    0.25495E-04   -0.10257E-05  4272   0.420E-02    0.571E-03
DAV:  11    -0.132433510071E+03    0.26688E-04   -0.41413E-05  6252   0.599E-02    0.129E-02
DAV:  12    -0.132433486656E+03    0.23415E-04   -0.19125E-05  5056   0.625E-02    0.681E-03
DAV:  13    -0.132433458067E+03    0.28589E-04   -0.97456E-05  8478   0.136E-01    0.143E-02
DAV:  14    -0.132433439756E+03    0.18312E-04   -0.70046E-05  7102   0.100E-01    0.596E-03
DAV:  15    -0.132433447723E+03   -0.79671E-05   -0.80905E-05  6390   0.338E-02
  21 F= -.13243345E+03 E0= -.13243022E+03  d E =-.270218E-02
       N       E                     dE             d eps       ncg     rms          rms(c)
DAV:   1    -0.132432826425E+03    0.61333E-03   -0.77888E-01  6188   0.371E+00    0.112E-01
DAV:   2    -0.132434352166E+03   -0.15257E-02   -0.17102E-02  6778   0.515E-01    0.668E-02
DAV:   3    -0.132434239345E+03    0.11282E-03   -0.23433E-04  7330   0.822E-02    0.477E-02
DAV:   4    -0.132434140919E+03    0.98426E-04   -0.25620E-04  7380   0.106E-01    0.202E-02
DAV:   5    -0.132434125628E+03    0.15291E-04   -0.21690E-04  6958   0.742E-02    0.213E-02
DAV:   6    -0.132434122232E+03    0.33953E-05   -0.60001E-05  5732   0.279E-02
  22 F= -.13243412E+03 E0= -.13243091E+03  d E =-.674510E-03
       N       E                     dE             d eps       ncg     rms          rms(c)
DAV:   1    -0.132434058272E+03    0.67356E-04   -0.46096E-02  6196   0.903E-01    0.346E-02
DAV:   2    -0.132434134345E+03   -0.76073E-04   -0.10739E-03  6794   0.132E-01    0.168E-02
DAV:   3    -0.132434119557E+03    0.14788E-04   -0.23012E-05  5400   0.361E-02    0.129E-02
DAV:   4    -0.132434102761E+03    0.16796E-04   -0.16331E-05  5126   0.435E-02    0.639E-03
DAV:   5    -0.132434089471E+03    0.13290E-04   -0.17702E-05  4862   0.495E-02    0.535E-03
DAV:   6    -0.132434088132E+03    0.13393E-05   -0.33362E-05  5230   0.257E-02
  23 F= -.13243409E+03 E0= -.13243089E+03  d E =-.640409E-03
       N       E                     dE             d eps       ncg     rms          rms(c)
DAV:   1    -0.132434081998E+03    0.74735E-05   -0.48550E-03  6224   0.293E-01    0.100E-02
DAV:   2    -0.132434088484E+03   -0.64864E-05   -0.11258E-04  6364   0.425E-02    0.594E-03
DAV:   3    -0.132434086758E+03    0.17264E-05   -0.15036E-05  3578   0.120E-02    0.465E-03
DAV:   4    -0.132434085169E+03    0.15882E-05   -0.54994E-06  3578   0.750E-03    0.330E-03
DAV:   5    -0.132434082326E+03    0.28438E-05   -0.11879E-06  3626   0.124E-02    0.182E-03
DAV:   6    -0.132434079326E+03    0.29996E-05   -0.12970E-06  3722   0.178E-02
  24 F= -.13243408E+03 E0= -.13243088E+03  d E =-.631603E-03
       N       E                     dE             d eps       ncg     rms          rms(c)
DAV:   1    -0.132434066670E+03    0.15655E-04   -0.80308E-03  6228   0.376E-01    0.127E-02
DAV:   2    -0.132434082342E+03   -0.15672E-04   -0.18399E-04  6710   0.535E-02    0.613E-03
DAV:   3    -0.132434081047E+03    0.12952E-05   -0.32785E-06  3536   0.912E-03    0.438E-03
DAV:   4    -0.132434080092E+03    0.95456E-06   -0.16856E-06  3488   0.592E-03    0.244E-03
DAV:   5    -0.132434079066E+03    0.10261E-05   -0.24869E-06  3754   0.824E-03    0.195E-03
DAV:   6    -0.132434078792E+03    0.27445E-06   -0.11514E-06  3362   0.445E-03
  25 F= -.13243408E+03 E0= -.13243087E+03  d E =-.631069E-03
       N       E                     dE             d eps       ncg     rms          rms(c)
DAV:   1    -0.132434077438E+03    0.16287E-05   -0.82554E-04  6116   0.121E-01    0.301E-03
DAV:   2    -0.132434078563E+03   -0.11250E-05   -0.16225E-05  4004   0.166E-02    0.257E-03
DAV:   3    -0.132434078303E+03    0.25961E-06   -0.98379E-07  3272   0.450E-03    0.194E-03
DAV:   4    -0.132434078113E+03    0.18973E-06   -0.40334E-07  3128   0.277E-03    0.157E-03
DAV:   5    -0.132434077492E+03    0.62090E-06   -0.29318E-07  3578   0.626E-03    0.846E-04
DAV:   6    -0.132434076764E+03    0.72817E-06   -0.45217E-07  3590   0.954E-03
  26 F= -.13243408E+03 E0= -.13243087E+03  d E =-.629042E-03
       N       E                     dE             d eps       ncg     rms          rms(c)
DAV:   1    -0.132434073603E+03    0.38896E-05   -0.91198E-04  6196   0.127E-01    0.394E-03
DAV:   2    -0.132434075170E+03   -0.15673E-05   -0.19027E-05  4318   0.176E-02    0.185E-03
DAV:   3    -0.132434074979E+03    0.19082E-06   -0.71817E-07  3254   0.445E-03    0.140E-03
DAV:   4    -0.132434074822E+03    0.15710E-06   -0.19759E-07  3128   0.289E-03    0.110E-03
DAV:   5    -0.132434074492E+03    0.33064E-06   -0.26050E-07  3518   0.519E-03    0.680E-04
DAV:   6    -0.132434074154E+03    0.33721E-06   -0.29598E-07  3326   0.599E-03
  27 F= -.13243407E+03 E0= -.13243087E+03  d E =-.626432E-03
