 vasp.5.3.5 31Mar14 (build Apr 08 2024 10:12:10) complex                        
  
 executed on             LinuxIFC date 2024.07.31  10:01:17
 running on    8 total cores
 distrk:  each k-point on    8 cores,    1 groups
 distr:  one band on NCORES_PER_BAND=   4 cores,    2 groups


--------------------------------------------------------------------------------------------------------


 INCAR:
 POTCAR:    PAW_PBE O 08Apr2002                   
 POTCAR:    PAW_PBE Mg 13Apr2007                  
 POTCAR:    PAW_PBE Al 04Jan2001                  
 POTCAR:    PAW_PBE O 08Apr2002                   
   VRHFIN =O: s2p4                                                              
   LEXCH  = PE                                                                  
   EATOM  =   432.3788 eV,   31.7789 Ry                                         
                                                                                
   TITEL  = PAW_PBE O 08Apr2002                                                 
   LULTRA =        F    use ultrasoft PP ?                                      
   IUNSCR =        1    unscreen: 0-lin 1-nonlin 2-no                           
   RPACOR =    1.200    partial core radius                                     
   POMASS =   16.000; ZVAL   =    6.000    mass and valenz                      
   RCORE  =    1.520    outmost cutoff radius                                   
   RWIGS  =    1.550; RWIGS  =    0.820    wigner-seitz radius (au A)           
   ENMAX  =  400.000; ENMIN  =  300.000 eV                                      
   ICORE  =        2    local potential                                         
   LCOR   =        T    correct aug charges                                     
   LPAW   =        T    paw PP                                                  
   EAUG   =  605.392                                                            
   DEXC   =    0.000                                                            
   RMAX   =    1.553    core radius for proj-oper                               
   RAUG   =    1.300    factor for augmentation sphere                          
   RDEP   =    1.550    radius for radial grids                                 
   RDEPT  =    1.329    core radius for aug-charge                              
                                                                                
   Atomic configuration                                                         
    4 entries                                                                   
     n  l   j            E        occ.                                          
     1  0  0.50      -514.6923   2.0000                                         
     2  0  0.50       -23.9615   2.0000                                         
     2  1  0.50        -9.0305   4.0000                                         
     3  2  1.50        -9.5241   0.0000                                         
   Description                                                                  
     l       E           TYP  RCUT    TYP  RCUT                                 
     0    -23.9615318     23  1.200                                             
     0     -9.5240782     23  1.200                                             
     1     -9.0304911     23  1.520                                             
     1      8.1634956     23  1.520                                             
     2     -9.5240782      7  1.500                                             
  local pseudopotential read in
  partial core-charges read in
  partial kinetic energy density read in
  kinetic energy density of atom read in
  atomic valenz-charges read in
  non local Contribution for L=           0  read in
    real space projection operators read in
  non local Contribution for L=           0  read in
    real space projection operators read in
  non local Contribution for L=           1  read in
    real space projection operators read in
  non local Contribution for L=           1  read in
    real space projection operators read in
    PAW grid and wavefunctions read in
 
   number of l-projection  operators is LMAX  =           4
   number of lm-projection operators is LMMAX =           8
 
 POTCAR:    PAW_PBE Mg 13Apr2007                  
   VRHFIN =Mg: s2p0                                                             
   LEXCH  = PE                                                                  
   EATOM  =    23.0369 eV,    1.6932 Ry                                         
                                                                                
   TITEL  = PAW_PBE Mg 13Apr2007                                                
   LULTRA =        F    use ultrasoft PP ?                                      
   IUNSCR =        1    unscreen: 0-lin 1-nonlin 2-no                           
   RPACOR =    1.500    partial core radius                                     
   POMASS =   24.305; ZVAL   =    2.000    mass and valenz                      
   RCORE  =    2.000    outmost cutoff radius                                   
   RWIGS  =    2.880; RWIGS  =    1.524    wigner-seitz radius (au A)           
   ENMAX  =  200.000; ENMIN  =  100.000 eV                                      
   RCLOC  =    1.506    cutoff for local pot                                    
   LCOR   =        T    correct aug charges                                     
   LPAW   =        T    paw PP                                                  
   EAUG   =  454.734                                                            
   DEXC   =    0.000                                                            
   RMAX   =    2.045    core radius for proj-oper                               
   RAUG   =    1.300    factor for augmentation sphere                          
   RDEP   =    2.025    radius for radial grids                                 
   RDEPT  =    1.942    core radius for aug-charge                              
                                                                                
   Atomic configuration                                                         
    6 entries                                                                   
     n  l   j            E        occ.                                          
     1  0  0.50     -1259.6230   2.0000                                         
     2  0  0.50       -79.8442   2.0000                                         
     2  1  1.50       -46.6121   6.0000                                         
     3  0  0.50        -4.7055   2.0000                                         
     3  1  0.50        -1.3660   0.0000                                         
     3  2  1.50        -1.3606   0.0000                                         
   Description                                                                  
     l       E           TYP  RCUT    TYP  RCUT                                 
     0     -4.7054661     23  2.000                                             
     0     27.2116520     23  2.000                                             
     1      1.3605826     23  2.000                                             
     1     27.2116520     23  2.000                                             
     2     -1.3605826     23  2.000                                             
  local pseudopotential read in
  partial core-charges read in
  partial kinetic energy density read in
  atomic valenz-charges read in
  non local Contribution for L=           0  read in
    real space projection operators read in
  non local Contribution for L=           0  read in
    real space projection operators read in
  non local Contribution for L=           1  read in
    real space projection operators read in
  non local Contribution for L=           1  read in
    real space projection operators read in
  non local Contribution for L=           2  read in
    real space projection operators read in
    PAW grid and wavefunctions read in
 
   number of l-projection  operators is LMAX  =           5
   number of lm-projection operators is LMMAX =          13
 
 POTCAR:    PAW_PBE Al 04Jan2001                  
   VRHFIN =Al: s2p1                                                             
   LEXCH  = PE                                                                  
   EATOM  =    53.5387 eV,    3.9350 Ry                                         
                                                                                
   TITEL  = PAW_PBE Al 04Jan2001                                                
   LULTRA =        F    use ultrasoft PP ?                                      
   IUNSCR =        1    unscreen: 0-lin 1-nonlin 2-no                           
   RPACOR =    1.500    partial core radius                                     
   POMASS =   26.981; ZVAL   =    3.000    mass and valenz                      
   RCORE  =    1.900    outmost cutoff radius                                   
   RWIGS  =    2.650; RWIGS  =    1.402    wigner-seitz radius (au A)           
   ENMAX  =  240.300; ENMIN  =  180.225 eV                                      
   ICORE  =        2    local potential                                         
   LCOR   =        T    correct aug charges                                     
   LPAW   =        T    paw PP                                                  
   EAUG   =  291.052                                                            
   DEXC   =    0.000                                                            
   RMAX   =    1.939    core radius for proj-oper                               
   RAUG   =    1.300    factor for augmentation sphere                          
   RDEP   =    1.966    radius for radial grids                                 
   RDEPT  =    1.856    core radius for aug-charge                              
                                                                                
   Atomic configuration                                                         
    6 entries                                                                   
     n  l   j            E        occ.                                          
     1  0  0.50     -1511.1048   2.0000                                         
     2  0  0.50      -108.1629   2.0000                                         
     2  1  1.50       -69.6402   6.0000                                         
     3  0  0.50        -7.7528   2.0000                                         
     3  1  1.50        -2.7121   1.0000                                         
     3  2  2.50        -2.7212   0.0000                                         
   Description                                                                  
     l       E           TYP  RCUT    TYP  RCUT                                 
     0     -7.7528455     23  1.900                                             
     0     -3.3096929     23  1.900                                             
     1     -2.7120682     23  1.900                                             
     1     13.6058260     23  1.900                                             
     2     -2.7211652      7  1.900                                             
  local pseudopotential read in
  partial core-charges read in
  partial kinetic energy density read in
  atomic valenz-charges read in
  non local Contribution for L=           0  read in
    real space projection operators read in
  non local Contribution for L=           0  read in
    real space projection operators read in
  non local Contribution for L=           1  read in
    real space projection operators read in
  non local Contribution for L=           1  read in
    real space projection operators read in
    PAW grid and wavefunctions read in
 
   number of l-projection  operators is LMAX  =           4
   number of lm-projection operators is LMMAX =           8
 

 ----------------------------------------------------------------------------- 
|                                                                             |
|  ADVICE TO THIS USER RUNNING 'VASP/VAMP'   (HEAR YOUR MASTER'S VOICE ...):  |
|                                                                             |
|      You have a (more or less) 'large supercell' and for larger cells       |
|      it might be more efficient to use real space projection opertators     |
|      So try LREAL= Auto  in the INCAR   file.                               |
|      Mind: At the moment your POTCAR file does not contain real space       |
|       projectors, and has to be modified,  BUT if you                       |
|      want to do an extremely  accurate calculation you might also keep the  |
|      reciprocal projection scheme          (i.e. LREAL=.FALSE.)             |
|                                                                             |
 ----------------------------------------------------------------------------- 

  PAW_PBE O 08Apr2002                   :
 energy of atom  1       EATOM= -432.3788
 kinetic energy error for atom=    0.0208 (will be added to EATOM!!)
  PAW_PBE Mg 13Apr2007                  :
 energy of atom  2       EATOM=  -23.0369
 kinetic energy error for atom=    0.0000 (will be added to EATOM!!)
  PAW_PBE Al 04Jan2001                  :
 energy of atom  3       EATOM=  -53.5387
 kinetic energy error for atom=    0.0002 (will be added to EATOM!!)
 
 
 POSCAR: Layer                                   
  positions in direct lattice
  velocities in cartesian coordinates
 exchange correlation table for  LEXCH =        8
   RHO(1)=    0.500       N(1)  =     2000
   RHO(2)=  100.500       N(2)  =     4000
 


--------------------------------------------------------------------------------------------------------


 ion  position               nearest neighbor table
   1  0.553  0.447  0.370-  14 2.13  15 2.13  14 2.13  14 2.13  15 2.13  15 2.13
   2  0.500  0.500  0.526-  16 2.13  17 2.13  16 2.13  16 2.13  17 2.13  17 2.13
   3  0.448  0.552  0.681-  19 2.13  18 2.13  19 2.13  19 2.13  18 2.13  18 2.13
   4  0.237  0.763  0.319-  14 2.12  14 2.13  14 2.13  10 2.14  10 2.15  10 2.15
   5  0.868  0.132  0.422-  15 2.13  11 2.13  15 2.13  15 2.13  11 2.13  11 2.13
   6  0.184  0.816  0.474-  11 2.13  16 2.13  11 2.13  11 2.13  16 2.13  16 2.13
   7  0.816  0.184  0.578-  12 2.13  17 2.13  12 2.13  12 2.13  17 2.13  17 2.13
   8  0.132  0.868  0.629-  18 2.13  12 2.13  18 2.13  18 2.13  12 2.13  12 2.13
   9  0.763  0.237  0.733-  19 2.12  19 2.13  19 2.13  13 2.14  13 2.15  13 2.15
  10  0.579  0.421  0.292-   4 2.14   4 2.15   4 2.15  21 2.99  21 2.99  21 2.99  14 3.04  14 3.04
                            14 3.04
  11  0.526  0.474  0.448-   6 2.13   5 2.13   6 2.13   6 2.13   5 2.13   5 2.13  15 3.03  15 3.03
                            16 3.03  16 3.03  15 3.03  16 3.03
  12  0.474  0.526  0.604-   7 2.13   8 2.13   7 2.13   7 2.13   8 2.13   8 2.13  18 3.03  18 3.03
                            17 3.03  17 3.03  18 3.03  17 3.03
  13  0.421  0.579  0.759-   9 2.14   9 2.15   9 2.15  24 2.99  24 2.99  24 2.99  19 3.04  19 3.04
                            19 3.05
  14  0.895  0.105  0.344-   4 2.12   4 2.13   4 2.13   1 2.13   1 2.13   1 2.13  15 3.02  15 3.02
                            15 3.03  10 3.04  10 3.04  10 3.04
  15  0.210  0.790  0.396-   5 2.13   1 2.13   5 2.13   5 2.13   1 2.13   1 2.13  14 3.02  14 3.02
                            14 3.03  11 3.03  11 3.03  11 3.03
  16  0.842  0.158  0.500-   2 2.13   6 2.13   2 2.13   2 2.13   6 2.13   6 2.13  11 3.03  11 3.03
                            11 3.03  17 3.03  17 3.03  17 3.03
  17  0.158  0.842  0.552-   7 2.13   2 2.13   7 2.13   7 2.13   2 2.13   2 2.13  12 3.03  12 3.03
                            12 3.03  16 3.03  16 3.03  16 3.03
  18  0.790  0.210  0.655-   8 2.13   3 2.13   8 2.13   8 2.13   3 2.13   3 2.13  19 3.02  19 3.02
                            19 3.03  12 3.03  12 3.03  12 3.03
  19  0.105  0.895  0.707-   9 2.12   9 2.13   9 2.13   3 2.13   3 2.13   3 2.13  18 3.02  18 3.02
                            18 3.03  13 3.04  13 3.04  13 3.05
  20  1.000  0.000  0.026-  25 2.80  23 2.80  25 2.81  25 2.81  23 2.81  23 2.81
  21  0.930  0.070  0.241-  10 2.99  10 2.99  10 2.99
  22  0.635  0.365  0.119-  23 2.84  23 2.84  23 2.84
  23  0.318  0.682  0.072-  20 2.80  20 2.81  20 2.81  22 2.84  22 2.84  22 2.84
  24  0.070  0.930  0.810-  13 2.99  13 2.99  13 2.99
  25  0.682  0.318  0.980-  20 2.80  20 2.81  20 2.81  26 2.84  26 2.84  26 2.84
  26  0.365  0.635  0.933-  25 2.84  25 2.84  25 2.84
 
  LATTYP: Found a base centered monoclinic cell.
 ALAT       =     5.1835214829
 B/A-ratio  =     0.5778353023
 C/A-ratio  =     9.3917253045
 COS(beta)  =    -0.1527655846
  
  Lattice vectors:
  
 A1 = (  -2.5925900058,   1.4952752266,  -0.0518951648)
 A2 = (   0.0013482762,   2.9928857368,  -0.0518951490)
 A3 = (   4.7735158528,  -8.2679694689, -47.7369017194)


Analysis of symmetry for initial positions (statically):
=====================================================================
 Subroutine PRICEL returns:
 Original cell was already a primitive cell.
 

 Routine SETGRP: Setting up the symmetry group for a 
 base centered monoclinic supercell.


 Subroutine GETGRP returns: Found  2 space group operations
 (whereof  2 operations were pure point group operations)
 out of a pool of  4 trial point group operations.


The static configuration has the point symmetry C_1h.


Analysis of symmetry for dynamics (positions and initial velocities):
=====================================================================
 Subroutine PRICEL returns:
 Original cell was already a primitive cell.
 

 Routine SETGRP: Setting up the symmetry group for a 
 base centered monoclinic supercell.


 Subroutine GETGRP returns: Found  2 space group operations
 (whereof  2 operations were pure point group operations)
 out of a pool of  4 trial point group operations.


The dynamic configuration has the point symmetry C_1h.


Analysis of constrained symmetry for selective dynamics:
=====================================================================
 Subroutine PRICEL returns:
 Original cell was already a primitive cell.
 

 Routine SETGRP: Setting up the symmetry group for a 
 base centered monoclinic supercell.


 Subroutine GETGRP returns: Found  2 space group operations
 (whereof  2 operations were pure point group operations)
 out of a pool of  4 trial point group operations.


The constrained configuration has the point symmetry C_1h.
 
 
 KPOINTS: K-Spacing Value to Generate K-Mesh: 0.02

Automatic generation of k-mesh.
Space group operators:
 irot       det(A)        alpha          n_x          n_y          n_z        tau_x        tau_y        tau_z
    1     1.000000     0.000000     1.000000     0.000000     0.000000     0.000000     0.000000     0.000000
    2    -1.000000   180.000000     0.866025     0.500000     0.000000     0.000000     0.000000     0.000000
 
 Subroutine IBZKPT returns following result:
 ===========================================
 
 Found     49 irreducible k-points:
 
 Following reciprocal coordinates:
            Coordinates               Weight
  0.000000  0.000000  0.000000      1.000000
  0.076923 -0.000000  0.000000      4.000000
  0.153846 -0.000000  0.000000      4.000000
  0.230769 -0.000000 -0.000000      4.000000
  0.307692  0.000000  0.000000      4.000000
  0.384615 -0.000000 -0.000000      4.000000
  0.461538 -0.000000 -0.000000      4.000000
  0.076923  0.076923 -0.000000      2.000000
  0.153846  0.076923 -0.000000      4.000000
  0.230769  0.076923 -0.000000      4.000000
  0.307692  0.076923 -0.000000      4.000000
  0.384615  0.076923  0.000000      4.000000
  0.461538  0.076923 -0.000000      4.000000
 -0.461538  0.076923  0.000000      4.000000
 -0.384615  0.076923  0.000000      4.000000
 -0.307692  0.076923 -0.000000      4.000000
 -0.230769  0.076923  0.000000      4.000000
 -0.153846  0.076923  0.000000      4.000000
 -0.076923  0.076923  0.000000      2.000000
  0.153846  0.153846  0.000000      2.000000
  0.230769  0.153846 -0.000000      4.000000
  0.307692  0.153846  0.000000      4.000000
  0.384615  0.153846 -0.000000      4.000000
  0.461538  0.153846 -0.000000      4.000000
 -0.461538  0.153846  0.000000      4.000000
 -0.384615  0.153846  0.000000      4.000000
 -0.307692  0.153846  0.000000      4.000000
 -0.230769  0.153846  0.000000      4.000000
 -0.153846  0.153846 -0.000000      2.000000
  0.230769  0.230769 -0.000000      2.000000
  0.307692  0.230769 -0.000000      4.000000
  0.384615  0.230769 -0.000000      4.000000
  0.461538  0.230769 -0.000000      4.000000
 -0.461538  0.230769  0.000000      4.000000
 -0.384615  0.230769  0.000000      4.000000
 -0.307692  0.230769 -0.000000      4.000000
 -0.230769  0.230769 -0.000000      2.000000
  0.307692  0.307692 -0.000000      2.000000
  0.384615  0.307692  0.000000      4.000000
  0.461538  0.307692 -0.000000      4.000000
 -0.461538  0.307692  0.000000      4.000000
 -0.384615  0.307692  0.000000      4.000000
 -0.307692  0.307692 -0.000000      2.000000
  0.384615  0.384615 -0.000000      2.000000
  0.461538  0.384615 -0.000000      4.000000
 -0.461538  0.384615 -0.000000      4.000000
 -0.384615  0.384615 -0.000000      2.000000
  0.461538  0.461538 -0.000000      2.000000
 -0.461538  0.461538 -0.000000      2.000000
 
 Following cartesian coordinates:
            Coordinates               Weight
  0.000000  0.000000  0.000000      1.000000
  0.029665 -0.000018 -0.000253      4.000000
  0.059330 -0.000036 -0.000507      4.000000
  0.088996 -0.000053 -0.000760      4.000000
  0.118661 -0.000071 -0.001013      4.000000
  0.148326 -0.000089 -0.001267      4.000000
  0.177991 -0.000107 -0.001520      4.000000
  0.044482  0.025682  0.000000      2.000000
  0.074148  0.025664 -0.000253      4.000000
  0.103813  0.025646 -0.000507      4.000000
  0.133478  0.025629 -0.000760      4.000000
  0.163143  0.025611 -0.001013      4.000000
  0.192808  0.025593 -0.001267      4.000000
 -0.163174  0.025806  0.001773      4.000000
 -0.133509  0.025788  0.001520      4.000000
 -0.103844  0.025771  0.001267      4.000000
 -0.074178  0.025753  0.001013      4.000000
 -0.044513  0.025735  0.000760      4.000000
 -0.014848  0.025717  0.000507      2.000000
  0.088965  0.051364  0.000000      2.000000
  0.118630  0.051346 -0.000253      4.000000
  0.148295  0.051328 -0.000507      4.000000
  0.177960  0.051311 -0.000760      4.000000
  0.207626  0.051293 -0.001013      4.000000
 -0.148357  0.051506  0.002026      4.000000
 -0.118692  0.051488  0.001773      4.000000
 -0.089026  0.051470  0.001520      4.000000
 -0.059361  0.051453  0.001267      4.000000
 -0.029696  0.051435  0.001013      2.000000
  0.133447  0.077046  0.000000      2.000000
  0.163112  0.077028 -0.000253      4.000000
  0.192778  0.077010 -0.000507      4.000000
  0.222443  0.076993 -0.000760      4.000000
 -0.133539  0.077206  0.002280      4.000000
 -0.103874  0.077188  0.002026      4.000000
 -0.074209  0.077170  0.001773      4.000000
 -0.044544  0.077152  0.001520      2.000000
  0.177930  0.102728  0.000000      2.000000
  0.207595  0.102710 -0.000253      4.000000
  0.237260  0.102692 -0.000507      4.000000
 -0.118722  0.102905  0.002533      4.000000
 -0.089057  0.102888  0.002280      4.000000
 -0.059392  0.102870  0.002026      2.000000
  0.222412  0.128410  0.000000      2.000000
  0.252077  0.128392 -0.000253      4.000000
 -0.103905  0.128605  0.002786      4.000000
 -0.074240  0.128587  0.002533      2.000000
  0.266894  0.154092  0.000000      2.000000
 -0.089088  0.154305  0.003040      2.000000
 


--------------------------------------------------------------------------------------------------------




 Dimension of arrays:
   k-points           NKPTS =     49   k-points in BZ     NKDIM =     49   number of bands    NBANDS=     62
   number of dos      NEDOS =    301   number of ions     NIONS =     26
   non local maximal  LDIM  =      5   non local SUM 2l+1 LMDIM =     13
   total plane-waves  NPLWV = 207360
   max r-space proj   IRMAX =      1   max aug-charges    IRDMAX= 189617
   dimension x,y,z NGX =    24 NGY =   24 NGZ =  360
   dimension x,y,z NGXF=    48 NGYF=   48 NGZF=  720
   support grid    NGXF=    96 NGYF=   96 NGZF= 1440
   ions per type =               9  10   7
 NGX,Y,Z   is equivalent  to a cutoff of  13.33, 13.33, 12.48 a.u.
 NGXF,Y,Z  is equivalent  to a cutoff of  26.66, 26.66, 24.96 a.u.


 I would recommend the setting:
   dimension x,y,z NGX =    22 NGY =   22 NGZ =  357
 SYSTEM =  unknown system                          
 POSCAR =  Layer                                   

 Startparameter for this run:
   NWRITE =      2    write-flag & timer
   PREC   = accura    normal or accurate (medium, high low for compatibility)
   ISTART =      0    job   : 0-new  1-cont  2-samecut
   ICHARG =      2    charge: 1-file 2-atom 10-const
   ISPIN  =      1    spin polarized calculation?
   LNONCOLLINEAR =      F non collinear calculations
   LSORBIT =      F    spin-orbit coupling
   INIWAV =      1    electr: 0-lowe 1-rand  2-diag
   LASPH  =      F    aspherical Exc in radial PAW
   METAGGA=      F    non-selfconsistent MetaGGA calc.

 Electronic Relaxation 1
   ENCUT  =  520.0 eV  38.22 Ry    6.18 a.u.   5.57  5.57 89.16*2*pi/ulx,y,z
   ENINI  =  520.0     initial cutoff
   ENAUG  =  605.4 eV  augmentation charge cutoff
   NELM   =    100;   NELMIN=  6; NELMDL=  0     # of ELM steps 
   EDIFF  = 0.1E-04   stopping-criterion for ELM
   LREAL  =      F    real-space projection
   NLSPLINE    = F    spline interpolate recip. space projectors
   LCOMPAT=      F    compatible to vasp.4.4
   GGA_COMPAT  = T    GGA compatible to vasp.4.4-vasp.4.6
   LMAXPAW     = -100 max onsite density
   LMAXMIX     =    2 max onsite mixed and CHGCAR
   VOSKOWN=      0    Vosko Wilk Nusair interpolation
   ROPT   =    0.00000   0.00000   0.00000
 Ionic relaxation
   EDIFFG = -.2E-01   stopping-criterion for IOM
   NSW    =    500    number of steps for IOM
   NBLOCK =      1;   KBLOCK =    500    inner block; outer block 
   IBRION =      2    ionic relax: 0-MD 1-quasi-New 2-CG
   NFREE  =      1    steps in history (QN), initial steepest desc. (CG)
   ISIF   =      2    stress and relaxation
   IWAVPR =     11    prediction:  0-non 1-charg 2-wave 3-comb
   ISYM   =      2    0-nonsym 1-usesym 2-fastsym
   LCORR  =      T    Harris-Foulkes like correction to forces

   POTIM  = 0.5000    time-step for ionic-motion
   TEIN   =    0.0    initial temperature
   TEBEG  =    0.0;   TEEND  =   0.0 temperature during run
   SMASS  =  -3.00    Nose mass-parameter (am)
   estimated Nose-frequenzy (Omega)   =  0.10E-29 period in steps =****** mass=  -0.205E-27a.u.
   SCALEE = 1.0000    scale energy and forces
   NPACO  =    256;   APACO  = 16.0  distance and # of slots for P.C.
   PSTRESS=    0.0 pullay stress

  Mass of Ions in am
   POMASS =  16.00 24.30 26.98
  Ionic Valenz
   ZVAL   =   6.00  2.00  3.00
  Atomic Wigner-Seitz radii
   RWIGS  =  -1.00 -1.00 -1.00
  virtual crystal weights 
   VCA    =   1.00  1.00  1.00
   NELECT =      95.0000    total number of electrons
   NUPDOWN=      -1.0000    fix difference up-down

 DOS related values:
   EMIN   =  10.00;   EMAX   =-10.00  energy-range for DOS
   EFERMI =   0.00
   ISMEAR =     0;   SIGMA  =   0.05  broadening in eV -4-tet -1-fermi 0-gaus

 Electronic relaxation 2 (details)
   IALGO  =     38    algorithm
   LDIAG  =      T    sub-space diagonalisation (order eigenvalues)
   LSUBROT=      F    optimize rotation matrix (better conditioning)
   TURBO    =      0    0=normal 1=particle mesh
   IRESTART =      0    0=no restart 2=restart with 2 vectors
   NREBOOT  =      0    no. of reboots
   NMIN     =      0    reboot dimension
   EREF     =   0.00    reference energy to select bands
   IMIX   =      4    mixing-type and parameters
     AMIX     =   0.40;   BMIX     =  1.00
     AMIX_MAG =   1.60;   BMIX_MAG =  1.00
     AMIN     =   0.01
     WC   =   100.;   INIMIX=   1;  MIXPRE=   1;  MAXMIX= -45

 Intra band minimization:
   WEIMIN = 0.0010     energy-eigenvalue tresh-hold
   EBREAK =  0.40E-07  absolut break condition
   DEPER  =   0.30     relativ break condition  

   TIME   =   0.40     timestep for ELM

  volume/ion in A,a.u.               =      14.31        96.55
  Fermi-wavevector in a.u.,A,eV,Ry     =   1.038661  1.962784 14.678183  1.078816
  Thomas-Fermi vector in A             =   2.173155
 
 Write flags
   LWAVE  =      F    write WAVECAR
   LCHARG =      T    write CHGCAR
   LVTOT  =      F    write LOCPOT, total local potential
   LVHAR  =      F    write LOCPOT, Hartree potential only
   LELF   =      F    write electronic localiz. function (ELF)
   LORBIT =      0    0 simple, 1 ext, 2 COOP (PROOUT)


 Dipole corrections
   LMONO  =      F    monopole corrections only (constant potential shift)
   LDIPOL =      F    correct potential (dipole corrections)
   IDIPOL =      0    1-x, 2-y, 3-z, 4-all directions 
   EPSILON=  1.0000000 bulk dielectric constant

 Exchange correlation treatment:
   GGA     =    --    GGA type
   LEXCH   =     8    internal setting for exchange type
   VOSKOWN=      0    Vosko Wilk Nusair interpolation
   LHFCALC =     F    Hartree Fock is set to
   LHFONE  =     F    Hartree Fock one center treatment
   AEXX    =    0.0000 exact exchange contribution

 Linear response parameters
   LEPSILON=     F    determine dielectric tensor
   LRPA    =     F    only Hartree local field effects (RPA)
   LNABLA  =     F    use nabla operator in PAW spheres
   LVEL    =     F    velocity operator in full k-point grid
   LINTERFAST=   F  fast interpolation
   KINTER  =     0    interpolate to denser k-point grid
   CSHIFT  =0.1000    complex shift for real part using Kramers Kronig
   OMEGAMAX=  -1.0    maximum frequency
   DEG_THRESHOLD= 0.2000000E-02 threshold for treating states as degnerate
   RTIME   =    0.100 relaxation time in fs

 Orbital magnetization related:
   ORBITALMAG=     F  switch on orbital magnetization
   LCHIMAG   =     F  perturbation theory with respect to B field
   DQ        =  0.001000  dq finite difference perturbation B field



--------------------------------------------------------------------------------------------------------


 conjugate gradient relaxation of ions
   using selective dynamics as specified on POSCAR
 charge density and potential will be updated during run
 non-spin polarized calculation
 Variant of blocked Davidson
 Davidson routine will perform the subspace rotation
 perform sub-space diagonalisation
    after iterative eigenvector-optimisation
 modified Broyden-mixing scheme, WC =      100.0
 initial mixing is a Kerker type mixing with AMIX =  0.4000 and BMIX =      1.0000
 Hartree-type preconditioning will be used
 using additional bands           14
 reciprocal scheme for non local part
 use partial core corrections
 calculate Harris-corrections to forces 
   (improved forces if not selfconsistent)
 use gradient corrections 
 use of overlap-Matrix (Vanderbilt PP)
 Gauss-broadening in eV      SIGMA  =   0.05


--------------------------------------------------------------------------------------------------------


  energy-cutoff  :      520.00
  volume of cell :      371.99
      direct lattice vectors                 reciprocal lattice vectors
     2.592590006 -1.495275227  0.051895165     0.385647454 -0.000230831 -0.003292993
     0.001348276  2.992885737 -0.051895149     0.192623822  0.334096009  0.003292993
     0.408967606 -0.708352458 47.944482347    -0.000208929  0.000361876  0.020864586

  length of vectors
     2.993336608  2.993335925 47.951458843     0.385661582  0.385661670  0.020868770


 
 k-points in units of 2pi/SCALE and weight: K-Spacing Value to Generate K-Mesh: 0.02
   0.00000000  0.00000000  0.00000000       0.006
   0.02966519 -0.00001776 -0.00025331       0.024
   0.05933038 -0.00003551 -0.00050661       0.024
   0.08899557 -0.00005327 -0.00075992       0.024
   0.11866076 -0.00007102 -0.00101323       0.024
   0.14832594 -0.00008878 -0.00126654       0.024
   0.17799113 -0.00010654 -0.00151984       0.024
   0.04448241  0.02568194  0.00000000       0.012
   0.07414759  0.02566418 -0.00025331       0.024
   0.10381278  0.02564642 -0.00050661       0.024
   0.13347797  0.02562867 -0.00075992       0.024
   0.16314316  0.02561091 -0.00101323       0.024
   0.19280835  0.02559316 -0.00126654       0.024
  -0.16317392  0.02580623  0.00177315       0.024
  -0.13350873  0.02578847  0.00151984       0.024
  -0.10384354  0.02577072  0.00126654       0.024
  -0.07417835  0.02575296  0.00101323       0.024
  -0.04451316  0.02573521  0.00075992       0.024
  -0.01484797  0.02571745  0.00050661       0.012
   0.08896481  0.05136387  0.00000000       0.012
   0.11863000  0.05134612 -0.00025331       0.024
   0.14829519  0.05132836 -0.00050661       0.024
   0.17796038  0.05131061 -0.00075992       0.024
   0.20762557  0.05129285 -0.00101323       0.024
  -0.14835670  0.05150592  0.00202646       0.024
  -0.11869151  0.05148817  0.00177315       0.024
  -0.08902632  0.05147041  0.00151984       0.024
  -0.05936113  0.05145265  0.00126654       0.024
  -0.02969594  0.05143490  0.00101323       0.012
   0.13344722  0.07704581  0.00000000       0.012
   0.16311241  0.07702805 -0.00025331       0.024
   0.19277760  0.07701030 -0.00050661       0.024
   0.22244278  0.07699254 -0.00075992       0.024
  -0.13353948  0.07720562  0.00227976       0.024
  -0.10387429  0.07718786  0.00202646       0.024
  -0.07420910  0.07717010  0.00177315       0.024
  -0.04454392  0.07715235  0.00151984       0.012
   0.17792962  0.10272775  0.00000000       0.012
   0.20759481  0.10270999 -0.00025331       0.024
   0.23726000  0.10269223 -0.00050661       0.024
  -0.11872226  0.10290531  0.00253307       0.024
  -0.08905708  0.10288755  0.00227976       0.024
  -0.05939189  0.10286980  0.00202646       0.012
   0.22241203  0.12840968  0.00000000       0.012
   0.25207722  0.12839193 -0.00025331       0.024
  -0.10390505  0.12860500  0.00278638       0.024
  -0.07423986  0.12858725  0.00253307       0.012
   0.26689444  0.15409162  0.00000000       0.012
  -0.08908783  0.15430470  0.00303969       0.012
 
 k-points in reciprocal lattice and weights: K-Spacing Value to Generate K-Mesh: 0.02
   0.00000000  0.00000000  0.00000000       0.006
   0.07692308 -0.00000000  0.00000000       0.024
   0.15384615 -0.00000000  0.00000000       0.024
   0.23076923 -0.00000000 -0.00000000       0.024
   0.30769231  0.00000000  0.00000000       0.024
   0.38461538 -0.00000000 -0.00000000       0.024
   0.46153846 -0.00000000 -0.00000000       0.024
   0.07692308  0.07692308 -0.00000000       0.012
   0.15384615  0.07692308 -0.00000000       0.024
   0.23076923  0.07692308 -0.00000000       0.024
   0.30769231  0.07692308 -0.00000000       0.024
   0.38461538  0.07692308  0.00000000       0.024
   0.46153846  0.07692308 -0.00000000       0.024
  -0.46153846  0.07692308  0.00000000       0.024
  -0.38461538  0.07692308  0.00000000       0.024
  -0.30769231  0.07692308 -0.00000000       0.024
  -0.23076923  0.07692308  0.00000000       0.024
  -0.15384615  0.07692308  0.00000000       0.024
  -0.07692308  0.07692308  0.00000000       0.012
   0.15384615  0.15384615  0.00000000       0.012
   0.23076923  0.15384615 -0.00000000       0.024
   0.30769231  0.15384615  0.00000000       0.024
   0.38461538  0.15384615 -0.00000000       0.024
   0.46153846  0.15384615 -0.00000000       0.024
  -0.46153846  0.15384615  0.00000000       0.024
  -0.38461538  0.15384615  0.00000000       0.024
  -0.30769231  0.15384615  0.00000000       0.024
  -0.23076923  0.15384615  0.00000000       0.024
  -0.15384615  0.15384615 -0.00000000       0.012
   0.23076923  0.23076923 -0.00000000       0.012
   0.30769231  0.23076923 -0.00000000       0.024
   0.38461538  0.23076923 -0.00000000       0.024
   0.46153846  0.23076923 -0.00000000       0.024
  -0.46153846  0.23076923  0.00000000       0.024
  -0.38461538  0.23076923  0.00000000       0.024
  -0.30769231  0.23076923 -0.00000000       0.024
  -0.23076923  0.23076923 -0.00000000       0.012
   0.30769231  0.30769231 -0.00000000       0.012
   0.38461538  0.30769231  0.00000000       0.024
   0.46153846  0.30769231 -0.00000000       0.024
  -0.46153846  0.30769231  0.00000000       0.024
  -0.38461538  0.30769231  0.00000000       0.024
  -0.30769231  0.30769231 -0.00000000       0.012
   0.38461538  0.38461538 -0.00000000       0.012
   0.46153846  0.38461538 -0.00000000       0.024
  -0.46153846  0.38461538 -0.00000000       0.024
  -0.38461538  0.38461538 -0.00000000       0.012
   0.46153846  0.46153846 -0.00000000       0.012
  -0.46153846  0.46153846 -0.00000000       0.012
 
 position of ions in fractional coordinates (direct lattice) 
   0.55252350  0.44747650  0.37025263
   0.50002341  0.49997659  0.52575893
   0.44752088  0.55247912  0.68127137
   0.23667996  0.76332004  0.31856237
   0.86835580  0.13164420  0.42206810
   0.18419221  0.81580779  0.47390444
   0.81585401  0.18414599  0.57761571
   0.13169011  0.86830989  0.62945218
   0.76336638  0.23663362  0.73295900
   0.57897442  0.42102558  0.29205400
   0.52627456  0.47372544  0.44799373
   0.47377107  0.52622893  0.60352768
   0.42107156  0.57892844  0.75946948
   0.89461023  0.10538977  0.34435539
   0.21043879  0.78956121  0.39616617
   0.84210904  0.15789096  0.49983286
   0.15793633  0.84206367  0.55168875
   0.78960590  0.21039410  0.65535707
   0.10543727  0.89456273  0.70716143
   0.99990389  0.00009611  0.02590827
   0.92960605  0.07039395  0.24121766
   0.63470786  0.36529214  0.11905050
   0.31753735  0.68246265  0.07201103
   0.07043990  0.92956010  0.81030408
   0.68227021  0.31772979  0.97980556
   0.36509933  0.63490067  0.93276661
 
 position of ions in cartesian coordinates  (Angst):
   1.58449155  0.25080198 17.75702190
   1.51204816  0.37627758 25.20724198
   1.43960097  0.50175976 32.65775653
   0.74492494  1.70497356 15.24597771
   2.42408024 -1.20340785 20.27406820
   0.67244637  1.83051009 22.68832530
   2.35164936 -1.07795391 27.72626897
   0.60001474  1.95596532 30.14053187
   2.27917157 -0.95241874 35.16867478
   1.62105158  0.18747818 14.01057469
   1.54826781  0.31354333 21.48155441
   1.47582692  0.43901460 28.93309975
   1.40304490  0.56507671 36.40417894
   2.46032982 -1.26619394 16.55089748
   0.70866517  1.76777731 18.96392852
   2.38787182 -1.14069303 23.99973555
   0.63622231  1.89325198 26.41492884
   2.31542783 -1.01521641 31.45081371
   0.56376785  2.01874675 33.86353668
   2.60293659 -1.51319604  1.29404355
   2.50883247 -1.35020296 11.60964497
   1.69471757  0.05988497  5.72179611
   0.85361448  1.51671781  3.43359387
   0.51526321  2.10275923 38.80502568
   2.16998406 -0.76330047 46.99518817
   1.32888021  0.69353367 44.70701112
 


--------------------------------------------------------------------------------------------------------


 k-point  1 :   0.0000 0.0000 0.0000  plane waves:   10147
 k-point  2 :   0.0769-0.0000 0.0000  plane waves:   10151
 k-point  3 :   0.1538-0.0000 0.0000  plane waves:   10122
 k-point  4 :   0.2308-0.0000-0.0000  plane waves:   10077
 k-point  5 :   0.3077 0.0000 0.0000  plane waves:   10017
 k-point  6 :   0.3846-0.0000-0.0000  plane waves:    9958
 k-point  7 :   0.4615-0.0000-0.0000  plane waves:    9964
 k-point  8 :   0.0769 0.0769-0.0000  plane waves:   10137
 k-point  9 :   0.1538 0.0769-0.0000  plane waves:   10097
 k-point 10 :   0.2308 0.0769-0.0000  plane waves:   10035
 k-point 11 :   0.3077 0.0769-0.0000  plane waves:   10009
 k-point 12 :   0.3846 0.0769 0.0000  plane waves:    9962
 k-point 13 :   0.4615 0.0769-0.0000  plane waves:    9935
 k-point 14 :  -0.4615 0.0769 0.0000  plane waves:    9955
 k-point 15 :  -0.3846 0.0769 0.0000  plane waves:   10003
 k-point 16 :  -0.3077 0.0769-0.0000  plane waves:   10028
 k-point 17 :  -0.2308 0.0769 0.0000  plane waves:   10099
 k-point 18 :  -0.1538 0.0769 0.0000  plane waves:   10129
 k-point 19 :  -0.0769 0.0769 0.0000  plane waves:   10149
 k-point 20 :   0.1538 0.1538 0.0000  plane waves:   10051
 k-point 21 :   0.2308 0.1538-0.0000  plane waves:   10008
 k-point 22 :   0.3077 0.1538 0.0000  plane waves:    9996
 k-point 23 :   0.3846 0.1538-0.0000  plane waves:    9955
 k-point 24 :   0.4615 0.1538-0.0000  plane waves:    9953
 k-point 25 :  -0.4615 0.1538 0.0000  plane waves:    9994
 k-point 26 :  -0.3846 0.1538 0.0000  plane waves:   10013
 k-point 27 :  -0.3077 0.1538 0.0000  plane waves:   10048
 k-point 28 :  -0.2308 0.1538 0.0000  plane waves:   10090
 k-point 29 :  -0.1538 0.1538-0.0000  plane waves:   10117
 k-point 30 :   0.2308 0.2308-0.0000  plane waves:   10016
 k-point 31 :   0.3077 0.2308-0.0000  plane waves:    9961
 k-point 32 :   0.3846 0.2308-0.0000  plane waves:    9998
 k-point 33 :   0.4615 0.2308-0.0000  plane waves:    9951
 k-point 34 :  -0.4615 0.2308 0.0000  plane waves:   10013
 k-point 35 :  -0.3846 0.2308 0.0000  plane waves:   10013
 k-point 36 :  -0.3077 0.2308-0.0000  plane waves:   10040
 k-point 37 :  -0.2308 0.2308-0.0000  plane waves:   10074
 k-point 38 :   0.3077 0.3077-0.0000  plane waves:    9996
 k-point 39 :   0.3846 0.3077 0.0000  plane waves:   10005
 k-point 40 :   0.4615 0.3077-0.0000  plane waves:    9968
 k-point 41 :  -0.4615 0.3077 0.0000  plane waves:    9995
 k-point 42 :  -0.3846 0.3077 0.0000  plane waves:   10006
 k-point 43 :  -0.3077 0.3077-0.0000  plane waves:   10010
 k-point 44 :   0.3846 0.3846-0.0000  plane waves:    9981
 k-point 45 :   0.4615 0.3846-0.0000  plane waves:    9949
 k-point 46 :  -0.4615 0.3846-0.0000  plane waves:    9967
 k-point 47 :  -0.3846 0.3846-0.0000  plane waves:    9955
 k-point 48 :   0.4615 0.4615-0.0000  plane waves:    9920
 k-point 49 :  -0.4615 0.4615-0.0000  plane waves:    9971

 maximum and minimum number of plane-waves per node :      2574     2446

 maximum number of plane-waves:     10151
 maximum index in each direction: 
   IXMAX=    6   IYMAX=    5   IZMAX=   89
   IXMIN=   -6   IYMIN=   -6   IZMIN=  -89

 WARNING: aliasing errors must be expected set NGX to  26 to avoid them
 NGY is ok and might be reduce to  24
 NGZ is ok and might be reduce to 358
 aliasing errors are usually negligible using standard VASP settings
 and one can safely disregard these warnings

 parallel 3D FFT for wavefunctions:
    minimum data exchange during FFTs selected (reduces bandwidth)
 parallel 3D FFT for charge:
    minimum data exchange during FFTs selected (reduces bandwidth)


 total amount of memory used by VASP on root node   221744. kBytes
========================================================================

   base      :      30000. kBytes
   nonl-proj :      40422. kBytes
   fftplans  :      62075. kBytes
   grid      :      24883. kBytes
   one-center:         56. kBytes
   wavefun   :      64308. kBytes
 
     INWAV:  cpu time    0.00: real time    0.00
 Broyden mixing: mesh for mixing (old mesh)
   NGX = 11   NGY = 11   NGZ =179
  (NGX  = 48   NGY  = 48   NGZ  =720)
  gives a total of  21659 points

 initial charge density was supplied:
 charge density of overlapping atoms calculated
 number of electron      95.0000000 magnetization 
 keeping initial charge density in first step


--------------------------------------------------------------------------------------------------------


 Maximum index for augmentation-charges        23078 (set IRDMAX)


--------------------------------------------------------------------------------------------------------


 First call to EWALD:  gamma=   0.246
 Maximum number of real-space cells 7x 7x 1
 Maximum number of reciprocal cells 1x 1x16

 FEWALD executed in parallel
    FEWALD:  cpu time    0.00: real time    0.00


----------------------------------------- Iteration    1(   1)  ---------------------------------------


    POTLOK:  cpu time    0.11: real time    0.11
    SETDIJ:  cpu time    0.10: real time    0.10
     EDDAV:  cpu time   10.60: real time   10.61
       DOS:  cpu time    0.00: real time    0.00
    --------------------------------------------
      LOOP:  cpu time   10.81: real time   10.83

 eigenvalue-minimisations  :  6116
 total energy-change (2. order) : 0.5125056E+03  (-0.4059422E+04)
 number of electron      95.0000000 magnetization 
 augmentation part       95.0000000 magnetization 

 Free energy of the ion-electron system (eV)
  ---------------------------------------------------
  alpha Z        PSCENC =       108.69803056
  Ewald energy   TEWEN  =     30788.29269985
  -Hartree energ DENC   =    -35384.95326742
  -exchange      EXHF   =         0.00000000
  -V(xc)+E(xc)   XCENC  =      -419.78307891
  PAW double counting   =      4235.41334458    -3509.29226066
  entropy T*S    EENTRO =        -0.00443927
  eigenvalues    EBANDS =       197.77482864
  atomic energy  EATOM  =      4496.35971583
  ---------------------------------------------------
  free energy    TOTEN  =       512.50557319 eV

  energy without entropy =      512.51001246  energy(sigma->0) =      512.50779283


--------------------------------------------------------------------------------------------------------




----------------------------------------- Iteration    1(   2)  ---------------------------------------


     EDDAV:  cpu time   12.78: real time   12.79
       DOS:  cpu time    0.00: real time    0.00
    --------------------------------------------
      LOOP:  cpu time   12.79: real time   12.80

 eigenvalue-minimisations  :  7928
 total energy-change (2. order) :-0.5917883E+03  (-0.5583980E+03)
 number of electron      95.0000000 magnetization 
 augmentation part       95.0000000 magnetization 

 Free energy of the ion-electron system (eV)
  ---------------------------------------------------
  alpha Z        PSCENC =       108.69803056
  Ewald energy   TEWEN  =     30788.29269985
  -Hartree energ DENC   =    -35384.95326742
  -exchange      EXHF   =         0.00000000
  -V(xc)+E(xc)   XCENC  =      -419.78307891
  PAW double counting   =      4235.41334458    -3509.29226066
  entropy T*S    EENTRO =        -0.00268510
  eigenvalues    EBANDS =      -394.01523188
  atomic energy  EATOM  =      4496.35971583
  ---------------------------------------------------
  free energy    TOTEN  =       -79.28273315 eV

  energy without entropy =      -79.28004805  energy(sigma->0) =      -79.28139060


--------------------------------------------------------------------------------------------------------




----------------------------------------- Iteration    1(   3)  ---------------------------------------


     EDDAV:  cpu time   11.78: real time   11.79
       DOS:  cpu time    0.00: real time    0.00
    --------------------------------------------
      LOOP:  cpu time   11.78: real time   11.79

 eigenvalue-minimisations  :  7128
 total energy-change (2. order) :-0.6700089E+02  (-0.6658579E+02)
 number of electron      95.0000000 magnetization 
 augmentation part       95.0000000 magnetization 

 Free energy of the ion-electron system (eV)
  ---------------------------------------------------
  alpha Z        PSCENC =       108.69803056
  Ewald energy   TEWEN  =     30788.29269985
  -Hartree energ DENC   =    -35384.95326742
  -exchange      EXHF   =         0.00000000
  -V(xc)+E(xc)   XCENC  =      -419.78307891
  PAW double counting   =      4235.41334458    -3509.29226066
  entropy T*S    EENTRO =        -0.00887083
  eigenvalues    EBANDS =      -461.00993675
  atomic energy  EATOM  =      4496.35971583
  ---------------------------------------------------
  free energy    TOTEN  =      -146.28362376 eV

  energy without entropy =     -146.27475293  energy(sigma->0) =     -146.27918835


--------------------------------------------------------------------------------------------------------




----------------------------------------- Iteration    1(   4)  ---------------------------------------


     EDDAV:  cpu time   11.78: real time   11.79
       DOS:  cpu time    0.00: real time    0.00
    --------------------------------------------
      LOOP:  cpu time   11.79: real time   11.80

 eigenvalue-minimisations  :  7240
 total energy-change (2. order) :-0.1383086E+01  (-0.1379849E+01)
 number of electron      95.0000000 magnetization 
 augmentation part       95.0000000 magnetization 

 Free energy of the ion-electron system (eV)
  ---------------------------------------------------
  alpha Z        PSCENC =       108.69803056
  Ewald energy   TEWEN  =     30788.29269985
  -Hartree energ DENC   =    -35384.95326742
  -exchange      EXHF   =         0.00000000
  -V(xc)+E(xc)   XCENC  =      -419.78307891
  PAW double counting   =      4235.41334458    -3509.29226066
  entropy T*S    EENTRO =        -0.00890565
  eigenvalues    EBANDS =      -462.39298753
  atomic energy  EATOM  =      4496.35971583
  ---------------------------------------------------
  free energy    TOTEN  =      -147.66670936 eV

  energy without entropy =     -147.65780370  energy(sigma->0) =     -147.66225653


--------------------------------------------------------------------------------------------------------




----------------------------------------- Iteration    1(   5)  ---------------------------------------


     EDDAV:  cpu time   12.46: real time   12.47
       DOS:  cpu time    0.00: real time    0.00
    CHARGE:  cpu time    0.79: real time    0.79
    MIXING:  cpu time    0.00: real time    0.00
    --------------------------------------------
      LOOP:  cpu time   13.26: real time   13.27

 eigenvalue-minimisations  :  7668
 total energy-change (2. order) :-0.3483572E-01  (-0.3480735E-01)
 number of electron      95.0000001 magnetization 
 augmentation part        6.9418252 magnetization 

 Broyden mixing:
  rms(total) = 0.22053E+01    rms(broyden)= 0.22048E+01
  rms(prec ) = 0.22560E+01
  weight for this iteration     100.00

 Free energy of the ion-electron system (eV)
  ---------------------------------------------------
  alpha Z        PSCENC =       108.69803056
  Ewald energy   TEWEN  =     30788.29269985
  -Hartree energ DENC   =    -35384.95326742
  -exchange      EXHF   =         0.00000000
  -V(xc)+E(xc)   XCENC  =      -419.78307891
  PAW double counting   =      4235.41334458    -3509.29226066
  entropy T*S    EENTRO =        -0.00890646
  eigenvalues    EBANDS =      -462.42782244
  atomic energy  EATOM  =      4496.35971583
  ---------------------------------------------------
  free energy    TOTEN  =      -147.70154507 eV

  energy without entropy =     -147.69263861  energy(sigma->0) =     -147.69709184


--------------------------------------------------------------------------------------------------------




----------------------------------------- Iteration    1(   6)  ---------------------------------------


    POTLOK:  cpu time    0.11: real time    0.11
    SETDIJ:  cpu time    0.10: real time    0.10
     EDDAV:  cpu time   11.60: real time   11.61
       DOS:  cpu time    0.00: real time    0.00
    CHARGE:  cpu time    0.77: real time    0.77
    MIXING:  cpu time    0.00: real time    0.00
    --------------------------------------------
      LOOP:  cpu time   12.59: real time   12.61

 eigenvalue-minimisations  :  6970
 total energy-change (2. order) : 0.1498451E+02  (-0.8255589E+01)
 number of electron      95.0000001 magnetization 
 augmentation part        5.6338898 magnetization 

 Broyden mixing:
  rms(total) = 0.73776E+00    rms(broyden)= 0.73684E+00
  rms(prec ) = 0.74516E+00
  weight for this iteration     100.00

 eigenvalues of (default mixing * dielectric matrix)
  average eigenvalue GAMMA=   0.8499
  0.8499

 Free energy of the ion-electron system (eV)
  ---------------------------------------------------
  alpha Z        PSCENC =       108.69803056
  Ewald energy   TEWEN  =     30788.29269985
  -Hartree energ DENC   =    -35562.41926362
  -exchange      EXHF   =         0.00000000
  -V(xc)+E(xc)   XCENC  =      -407.61907323
  PAW double counting   =      5029.57863021    -4306.62593906
  entropy T*S    EENTRO =        -0.00340942
  eigenvalues    EBANDS =      -278.97842172
  atomic energy  EATOM  =      4496.35971583
  ---------------------------------------------------
  free energy    TOTEN  =      -132.71703059 eV

  energy without entropy =     -132.71362118  energy(sigma->0) =     -132.71532588


--------------------------------------------------------------------------------------------------------




----------------------------------------- Iteration    1(   7)  ---------------------------------------


    POTLOK:  cpu time    0.11: real time    0.11
    SETDIJ:  cpu time    0.10: real time    0.10
     EDDAV:  cpu time   11.27: real time   11.28
       DOS:  cpu time    0.00: real time    0.00
    CHARGE:  cpu time    0.78: real time    0.78
    MIXING:  cpu time    0.00: real time    0.00
    --------------------------------------------
      LOOP:  cpu time   12.26: real time   12.27

 eigenvalue-minimisations  :  6700
 total energy-change (2. order) : 0.1498731E+00  (-0.1882878E+00)
 number of electron      95.0000001 magnetization 
 augmentation part        5.6559819 magnetization 

 Broyden mixing:
  rms(total) = 0.45848E+00    rms(broyden)= 0.45846E+00
  rms(prec ) = 0.46350E+00
  weight for this iteration     100.00

 eigenvalues of (default mixing * dielectric matrix)
  average eigenvalue GAMMA=   1.5887
  0.9934  2.1841

 Free energy of the ion-electron system (eV)
  ---------------------------------------------------
  alpha Z        PSCENC =       108.69803056
  Ewald energy   TEWEN  =     30788.29269985
  -Hartree energ DENC   =    -35565.02997431
  -exchange      EXHF   =         0.00000000
  -V(xc)+E(xc)   XCENC  =      -407.11106719
  PAW double counting   =      5320.58264385    -4597.24728939
  entropy T*S    EENTRO =        -0.00572349
  eigenvalues    EBANDS =      -277.10619320
  atomic energy  EATOM  =      4496.35971583
  ---------------------------------------------------
  free energy    TOTEN  =      -132.56715750 eV

  energy without entropy =     -132.56143401  energy(sigma->0) =     -132.56429575


--------------------------------------------------------------------------------------------------------




----------------------------------------- Iteration    1(   8)  ---------------------------------------


    POTLOK:  cpu time    0.12: real time    0.12
    SETDIJ:  cpu time    0.10: real time    0.10
     EDDAV:  cpu time   11.59: real time   11.60
       DOS:  cpu time    0.00: real time    0.00
    CHARGE:  cpu time    0.77: real time    0.77
    MIXING:  cpu time    0.00: real time    0.00
    --------------------------------------------
      LOOP:  cpu time   12.59: real time   12.60

 eigenvalue-minimisations  :  6960
 total energy-change (2. order) : 0.1326859E+00  (-0.6280379E-01)
 number of electron      95.0000001 magnetization 
 augmentation part        5.7113489 magnetization 

 Broyden mixing:
  rms(total) = 0.10443E+00    rms(broyden)= 0.10439E+00
  rms(prec ) = 0.12265E+00
  weight for this iteration     100.00

 eigenvalues of (default mixing * dielectric matrix)
  average eigenvalue GAMMA=   1.3541
  2.4040  0.9404  0.7181

 Free energy of the ion-electron system (eV)
  ---------------------------------------------------
  alpha Z        PSCENC =       108.69803056
  Ewald energy   TEWEN  =     30788.29269985
  -Hartree energ DENC   =    -35574.32176231
  -exchange      EXHF   =         0.00000000
  -V(xc)+E(xc)   XCENC  =      -405.74010637
  PAW double counting   =      5776.54314791    -5052.93758949
  entropy T*S    EENTRO =        -0.00157447
  eigenvalues    EBANDS =      -269.32703310
  atomic energy  EATOM  =      4496.35971583
  ---------------------------------------------------
  free energy    TOTEN  =      -132.43447159 eV

  energy without entropy =     -132.43289712  energy(sigma->0) =     -132.43368436


--------------------------------------------------------------------------------------------------------




----------------------------------------- Iteration    1(   9)  ---------------------------------------


    POTLOK:  cpu time    0.11: real time    0.11
    SETDIJ:  cpu time    0.10: real time    0.10
     EDDAV:  cpu time   11.65: real time   11.66
       DOS:  cpu time    0.00: real time    0.00
    CHARGE:  cpu time    0.77: real time    0.77
    MIXING:  cpu time    0.00: real time    0.00
    --------------------------------------------
      LOOP:  cpu time   12.64: real time   12.65

 eigenvalue-minimisations  :  7010
 total energy-change (2. order) : 0.2497814E-01  (-0.8875045E-02)
 number of electron      95.0000001 magnetization 
 augmentation part        5.6873633 magnetization 

 Broyden mixing:
  rms(total) = 0.60512E-01    rms(broyden)= 0.60511E-01
  rms(prec ) = 0.64493E-01
  weight for this iteration     100.00

 eigenvalues of (default mixing * dielectric matrix)
  average eigenvalue GAMMA=   1.3103
  2.4248  0.9885  0.9139  0.9139

 Free energy of the ion-electron system (eV)
  ---------------------------------------------------
  alpha Z        PSCENC =       108.69803056
  Ewald energy   TEWEN  =     30788.29269985
  -Hartree energ DENC   =    -35580.21973106
  -exchange      EXHF   =         0.00000000
  -V(xc)+E(xc)   XCENC  =      -405.26811882
  PAW double counting   =      5826.07216762    -5102.50328129
  entropy T*S    EENTRO =        -0.00932088
  eigenvalues    EBANDS =      -263.83165527
  atomic energy  EATOM  =      4496.35971583
  ---------------------------------------------------
  free energy    TOTEN  =      -132.40949345 eV

  energy without entropy =     -132.40017257  energy(sigma->0) =     -132.40483301


--------------------------------------------------------------------------------------------------------




----------------------------------------- Iteration    1(  10)  ---------------------------------------


    POTLOK:  cpu time    0.11: real time    0.11
    SETDIJ:  cpu time    0.10: real time    0.10
     EDDAV:  cpu time   11.50: real time   11.51
       DOS:  cpu time    0.00: real time    0.00
    CHARGE:  cpu time    0.79: real time    0.79
    MIXING:  cpu time    0.00: real time    0.00
    --------------------------------------------
      LOOP:  cpu time   12.51: real time   12.52

 eigenvalue-minimisations  :  6996
 total energy-change (2. order) : 0.1139133E-02  (-0.4224070E-02)
 number of electron      95.0000001 magnetization 
 augmentation part        5.6776244 magnetization 

 Broyden mixing:
  rms(total) = 0.33706E-01    rms(broyden)= 0.33696E-01
  rms(prec ) = 0.42751E-01
  weight for this iteration     100.00

 eigenvalues of (default mixing * dielectric matrix)
  average eigenvalue GAMMA=   1.2928
  2.5233  1.7802  0.9063  0.8018  0.4525

 Free energy of the ion-electron system (eV)
  ---------------------------------------------------
  alpha Z        PSCENC =       108.69803056
  Ewald energy   TEWEN  =     30788.29269985
  -Hartree energ DENC   =    -35581.87364226
  -exchange      EXHF   =         0.00000000
  -V(xc)+E(xc)   XCENC  =      -405.14746832
  PAW double counting   =      5820.17243649    -5096.62244716
  entropy T*S    EENTRO =        -0.00644859
  eigenvalues    EBANDS =      -262.28123071
  atomic energy  EATOM  =      4496.35971583
  ---------------------------------------------------
  free energy    TOTEN  =      -132.40835432 eV

  energy without entropy =     -132.40190573  energy(sigma->0) =     -132.40513002


--------------------------------------------------------------------------------------------------------




----------------------------------------- Iteration    1(  11)  ---------------------------------------


    POTLOK:  cpu time    0.11: real time    0.11
    SETDIJ:  cpu time    0.10: real time    0.10
     EDDAV:  cpu time   12.03: real time   12.04
       DOS:  cpu time    0.00: real time    0.00
    CHARGE:  cpu time    0.78: real time    0.78
    MIXING:  cpu time    0.00: real time    0.00
    --------------------------------------------
      LOOP:  cpu time   13.03: real time   13.04

 eigenvalue-minimisations  :  7288
 total energy-change (2. order) :-0.4250306E-02  (-0.2243468E-02)
 number of electron      95.0000001 magnetization 
 augmentation part        5.6677140 magnetization 

 Broyden mixing:
  rms(total) = 0.27430E-01    rms(broyden)= 0.27420E-01
  rms(prec ) = 0.29338E-01
  weight for this iteration     100.00

 eigenvalues of (default mixing * dielectric matrix)
  average eigenvalue GAMMA=   1.2573
  2.5819  1.9840  0.9634  0.7847  0.7847  0.4454

 Free energy of the ion-electron system (eV)
  ---------------------------------------------------
  alpha Z        PSCENC =       108.69803056
  Ewald energy   TEWEN  =     30788.29269985
  -Hartree energ DENC   =    -35584.92341070
  -exchange      EXHF   =         0.00000000
  -V(xc)+E(xc)   XCENC  =      -404.97830015
  PAW double counting   =      5792.63437092    -5069.10411066
  entropy T*S    EENTRO =        -0.00868879
  eigenvalues    EBANDS =      -259.38291149
  atomic energy  EATOM  =      4496.35971583
  ---------------------------------------------------
  free energy    TOTEN  =      -132.41260462 eV

  energy without entropy =     -132.40391584  energy(sigma->0) =     -132.40826023


--------------------------------------------------------------------------------------------------------




----------------------------------------- Iteration    1(  12)  ---------------------------------------


    POTLOK:  cpu time    0.11: real time    0.11
    SETDIJ:  cpu time    0.10: real time    0.10
     EDDAV:  cpu time   12.95: real time   12.96
       DOS:  cpu time    0.00: real time    0.00
    CHARGE:  cpu time    0.78: real time    0.78
    MIXING:  cpu time    0.00: real time    0.00
    --------------------------------------------
      LOOP:  cpu time   13.95: real time   13.96

 eigenvalue-minimisations  :  8018
 total energy-change (2. order) :-0.3340943E-03  (-0.5680037E-03)
 number of electron      95.0000001 magnetization 
 augmentation part        5.6703733 magnetization 

 Broyden mixing:
  rms(total) = 0.17996E-01    rms(broyden)= 0.17995E-01
  rms(prec ) = 0.26048E-01
  weight for this iteration     100.00

 eigenvalues of (default mixing * dielectric matrix)
  average eigenvalue GAMMA=   1.3099
  2.8031  2.3527  0.9237  0.9237  0.9572  0.8235  0.3855

 Free energy of the ion-electron system (eV)
  ---------------------------------------------------
  alpha Z        PSCENC =       108.69803056
  Ewald energy   TEWEN  =     30788.29269985
  -Hartree energ DENC   =    -35585.47808730
  -exchange      EXHF   =         0.00000000
  -V(xc)+E(xc)   XCENC  =      -404.95994958
  PAW double counting   =      5782.60269637    -5059.07528321
  entropy T*S    EENTRO =        -0.00704093
  eigenvalues    EBANDS =      -258.84572031
  atomic energy  EATOM  =      4496.35971583
  ---------------------------------------------------
  free energy    TOTEN  =      -132.41293872 eV

  energy without entropy =     -132.40589779  energy(sigma->0) =     -132.40941825


--------------------------------------------------------------------------------------------------------




----------------------------------------- Iteration    1(  13)  ---------------------------------------


    POTLOK:  cpu time    0.12: real time    0.12
    SETDIJ:  cpu time    0.10: real time    0.10
     EDDAV:  cpu time   11.56: real time   11.57
       DOS:  cpu time    0.00: real time    0.00
    CHARGE:  cpu time    0.78: real time    0.78
    MIXING:  cpu time    0.01: real time    0.01
    --------------------------------------------
      LOOP:  cpu time   12.57: real time   12.58

 eigenvalue-minimisations  :  7020
 total energy-change (2. order) :-0.3931019E-04  (-0.4759433E-03)
 number of electron      95.0000001 magnetization 
 augmentation part        5.6714590 magnetization 

 Broyden mixing:
  rms(total) = 0.88611E-02    rms(broyden)= 0.88572E-02
  rms(prec ) = 0.17703E-01
  weight for this iteration     100.00

 eigenvalues of (default mixing * dielectric matrix)
  average eigenvalue GAMMA=   1.2225
  2.8753  2.4290  0.9241  0.9241  0.9303  0.8256  0.3830  0.4888

 Free energy of the ion-electron system (eV)
  ---------------------------------------------------
  alpha Z        PSCENC =       108.69803056
  Ewald energy   TEWEN  =     30788.29269985
  -Hartree energ DENC   =    -35586.36315696
  -exchange      EXHF   =         0.00000000
  -V(xc)+E(xc)   XCENC  =      -404.95010533
  PAW double counting   =      5771.93682923    -5048.41021310
  entropy T*S    EENTRO =        -0.00750699
  eigenvalues    EBANDS =      -257.96927111
  atomic energy  EATOM  =      4496.35971583
  ---------------------------------------------------
  free energy    TOTEN  =      -132.41297803 eV

  energy without entropy =     -132.40547104  energy(sigma->0) =     -132.40922453


--------------------------------------------------------------------------------------------------------




----------------------------------------- Iteration    1(  14)  ---------------------------------------


    POTLOK:  cpu time    0.11: real time    0.11
    SETDIJ:  cpu time    0.10: real time    0.10
     EDDAV:  cpu time   11.57: real time   11.58
       DOS:  cpu time    0.00: real time    0.00
    CHARGE:  cpu time    0.77: real time    0.77
    MIXING:  cpu time    0.01: real time    0.01
    --------------------------------------------
      LOOP:  cpu time   12.56: real time   12.57

 eigenvalue-minimisations  :  6938
 total energy-change (2. order) : 0.9744495E-04  (-0.1509440E-03)
 number of electron      95.0000001 magnetization 
 augmentation part        5.6716613 magnetization 

 Broyden mixing:
  rms(total) = 0.57706E-02    rms(broyden)= 0.57703E-02
  rms(prec ) = 0.12154E-01
  weight for this iteration     100.00

 eigenvalues of (default mixing * dielectric matrix)
  average eigenvalue GAMMA=   1.1503
  2.9179  2.4735  0.9143  0.9143  0.9141  0.7166  0.5614  0.5614  0.3789

 Free energy of the ion-electron system (eV)
  ---------------------------------------------------
  alpha Z        PSCENC =       108.69803056
  Ewald energy   TEWEN  =     30788.29269985
  -Hartree energ DENC   =    -35586.78243433
  -exchange      EXHF   =         0.00000000
  -V(xc)+E(xc)   XCENC  =      -404.95198841
  PAW double counting   =      5767.52431845    -5043.99672518
  entropy T*S    EENTRO =        -0.00792811
  eigenvalues    EBANDS =      -257.54856925
  atomic energy  EATOM  =      4496.35971583
  ---------------------------------------------------
  free energy    TOTEN  =      -132.41288058 eV

  energy without entropy =     -132.40495248  energy(sigma->0) =     -132.40891653


--------------------------------------------------------------------------------------------------------




----------------------------------------- Iteration    1(  15)  ---------------------------------------


    POTLOK:  cpu time    0.11: real time    0.11
    SETDIJ:  cpu time    0.10: real time    0.10
     EDDAV:  cpu time   11.42: real time   11.43
       DOS:  cpu time    0.00: real time    0.00
    CHARGE:  cpu time    0.77: real time    0.77
    MIXING:  cpu time    0.00: real time    0.00
    --------------------------------------------
      LOOP:  cpu time   12.42: real time   12.43

 eigenvalue-minimisations  :  6840
 total energy-change (2. order) : 0.1059304E-03  (-0.4666778E-04)
 number of electron      95.0000001 magnetization 
 augmentation part        5.6728760 magnetization 

 Broyden mixing:
  rms(total) = 0.33623E-02    rms(broyden)= 0.33617E-02
  rms(prec ) = 0.95191E-02
  weight for this iteration     100.00

 eigenvalues of (default mixing * dielectric matrix)
  average eigenvalue GAMMA=   1.2649
  3.3164  2.5701  1.5668  0.8962  0.8962  0.9147  0.8784  0.8784  0.3861  0.3460

 Free energy of the ion-electron system (eV)
  ---------------------------------------------------
  alpha Z        PSCENC =       108.69803056
  Ewald energy   TEWEN  =     30788.29269985
  -Hartree energ DENC   =    -35587.26918974
  -exchange      EXHF   =         0.00000000
  -V(xc)+E(xc)   XCENC  =      -404.96066590
  PAW double counting   =      5763.88012522    -5040.34959177
  entropy T*S    EENTRO =        -0.00806059
  eigenvalues    EBANDS =      -257.05583811
  atomic energy  EATOM  =      4496.35971583
  ---------------------------------------------------
  free energy    TOTEN  =      -132.41277465 eV

  energy without entropy =     -132.40471406  energy(sigma->0) =     -132.40874436


--------------------------------------------------------------------------------------------------------




----------------------------------------- Iteration    1(  16)  ---------------------------------------


    POTLOK:  cpu time    0.11: real time    0.11
    SETDIJ:  cpu time    0.10: real time    0.10
     EDDAV:  cpu time   12.19: real time   12.20
       DOS:  cpu time    0.00: real time    0.00
    CHARGE:  cpu time    0.78: real time    0.78
    MIXING:  cpu time    0.01: real time    0.01
    --------------------------------------------
      LOOP:  cpu time   13.19: real time   13.20

 eigenvalue-minimisations  :  7406
 total energy-change (2. order) : 0.4900512E-03  (-0.8564280E-04)
 number of electron      95.0000001 magnetization 
 augmentation part        5.6733307 magnetization 

 Broyden mixing:
  rms(total) = 0.33109E-02    rms(broyden)= 0.33103E-02
  rms(prec ) = 0.59777E-02
  weight for this iteration     100.00

 eigenvalues of (default mixing * dielectric matrix)
  average eigenvalue GAMMA=   1.3134
  3.5700  2.6135  2.2048  0.9082  0.9082  0.9348  0.9315  0.9315  0.7065  0.3833
  0.3550

 Free energy of the ion-electron system (eV)
  ---------------------------------------------------
  alpha Z        PSCENC =       108.69803056
  Ewald energy   TEWEN  =     30788.29269985
  -Hartree energ DENC   =    -35588.83597735
  -exchange      EXHF   =         0.00000000
  -V(xc)+E(xc)   XCENC  =      -404.96531234
  PAW double counting   =      5760.10545085    -5036.57138489
  entropy T*S    EENTRO =        -0.00846269
  eigenvalues    EBANDS =      -255.48704441
  atomic energy  EATOM  =      4496.35971583
  ---------------------------------------------------
  free energy    TOTEN  =      -132.41228460 eV

  energy without entropy =     -132.40382191  energy(sigma->0) =     -132.40805325


--------------------------------------------------------------------------------------------------------




----------------------------------------- Iteration    1(  17)  ---------------------------------------


    POTLOK:  cpu time    0.11: real time    0.11
    SETDIJ:  cpu time    0.10: real time    0.10
     EDDAV:  cpu time   12.50: real time   12.51
       DOS:  cpu time    0.00: real time    0.00
    CHARGE:  cpu time    0.77: real time    0.77
    MIXING:  cpu time    0.01: real time    0.01
    --------------------------------------------
      LOOP:  cpu time   13.49: real time   13.51

 eigenvalue-minimisations  :  7658
 total energy-change (2. order) : 0.3511206E-03  (-0.4184060E-04)
 number of electron      95.0000001 magnetization 
 augmentation part        5.6732513 magnetization 

 Broyden mixing:
  rms(total) = 0.26345E-02    rms(broyden)= 0.26342E-02
  rms(prec ) = 0.52092E-02
  weight for this iteration     100.00

 eigenvalues of (default mixing * dielectric matrix)
  average eigenvalue GAMMA=   1.3589
  4.0452  2.6398  2.2566  0.9674  0.9674  1.1249  1.0204  1.0204  0.7626  0.7626
  0.3849  0.3547

 Free energy of the ion-electron system (eV)
  ---------------------------------------------------
  alpha Z        PSCENC =       108.69803056
  Ewald energy   TEWEN  =     30788.29269985
  -Hartree energ DENC   =    -35589.78892200
  -exchange      EXHF   =         0.00000000
  -V(xc)+E(xc)   XCENC  =      -404.96136995
  PAW double counting   =      5762.49993232    -5038.96596739
  entropy T*S    EENTRO =        -0.00843738
  eigenvalues    EBANDS =      -254.53761532
  atomic energy  EATOM  =      4496.35971583
  ---------------------------------------------------
  free energy    TOTEN  =      -132.41193348 eV

  energy without entropy =     -132.40349610  energy(sigma->0) =     -132.40771479


--------------------------------------------------------------------------------------------------------




----------------------------------------- Iteration    1(  18)  ---------------------------------------


    POTLOK:  cpu time    0.11: real time    0.11
    SETDIJ:  cpu time    0.10: real time    0.10
     EDDAV:  cpu time   14.40: real time   14.41
       DOS:  cpu time    0.00: real time    0.00
    CHARGE:  cpu time    0.77: real time    0.77
    MIXING:  cpu time    0.01: real time    0.01
    --------------------------------------------
      LOOP:  cpu time   15.40: real time   15.41

 eigenvalue-minimisations  :  9192
 total energy-change (2. order) : 0.4564129E-03  (-0.2696757E-04)
 number of electron      95.0000001 magnetization 
 augmentation part        5.6725638 magnetization 

 Broyden mixing:
  rms(total) = 0.15341E-02    rms(broyden)= 0.15336E-02
  rms(prec ) = 0.36329E-02
  weight for this iteration     100.00

 eigenvalues of (default mixing * dielectric matrix)
  average eigenvalue GAMMA=   1.4721
  5.0493  2.9645  2.5214  1.7456  0.9118  0.9118  0.9420  0.9420  0.8371  0.8371
  0.7356  0.3843  0.3543

 Free energy of the ion-electron system (eV)
  ---------------------------------------------------
  alpha Z        PSCENC =       108.69803056
  Ewald energy   TEWEN  =     30788.29269985
  -Hartree energ DENC   =    -35591.08953719
  -exchange      EXHF   =         0.00000000
  -V(xc)+E(xc)   XCENC  =      -404.95447499
  PAW double counting   =      5763.51291864    -5039.98026114
  entropy T*S    EENTRO =        -0.00849713
  eigenvalues    EBANDS =      -253.24207150
  atomic energy  EATOM  =      4496.35971583
  ---------------------------------------------------
  free energy    TOTEN  =      -132.41147707 eV

  energy without entropy =     -132.40297993  energy(sigma->0) =     -132.40722850


--------------------------------------------------------------------------------------------------------




----------------------------------------- Iteration    1(  19)  ---------------------------------------


    POTLOK:  cpu time    0.11: real time    0.11
    SETDIJ:  cpu time    0.10: real time    0.10
     EDDAV:  cpu time   13.03: real time   13.04
       DOS:  cpu time    0.00: real time    0.00
    CHARGE:  cpu time    0.77: real time    0.77
    MIXING:  cpu time    0.01: real time    0.01
    --------------------------------------------
      LOOP:  cpu time   14.02: real time   14.03

 eigenvalue-minimisations  :  8104
 total energy-change (2. order) : 0.3555462E-03  (-0.3793395E-04)
 number of electron      95.0000001 magnetization 
 augmentation part        5.6719999 magnetization 

 Broyden mixing:
  rms(total) = 0.24805E-02    rms(broyden)= 0.24800E-02
  rms(prec ) = 0.39299E-02
  weight for this iteration     100.00

 eigenvalues of (default mixing * dielectric matrix)
  average eigenvalue GAMMA=   1.4816
  5.2242  3.0735  2.5667  1.7149  0.9854  0.9854  1.0718  1.0718  1.0320  0.7847
  0.7847  0.7093  0.3843  0.3542

 Free energy of the ion-electron system (eV)
  ---------------------------------------------------
  alpha Z        PSCENC =       108.69803056
  Ewald energy   TEWEN  =     30788.29269985
  -Hartree energ DENC   =    -35592.38415738
  -exchange      EXHF   =         0.00000000
  -V(xc)+E(xc)   XCENC  =      -404.95151277
  PAW double counting   =      5765.81037045    -5042.27870842
  entropy T*S    EENTRO =        -0.00841464
  eigenvalues    EBANDS =      -251.94914500
  atomic energy  EATOM  =      4496.35971583
  ---------------------------------------------------
  free energy    TOTEN  =      -132.41112152 eV

  energy without entropy =     -132.40270688  energy(sigma->0) =     -132.40691420


--------------------------------------------------------------------------------------------------------




----------------------------------------- Iteration    1(  20)  ---------------------------------------


    POTLOK:  cpu time    0.11: real time    0.11
    SETDIJ:  cpu time    0.10: real time    0.10
     EDDAV:  cpu time   14.51: real time   14.52
       DOS:  cpu time    0.00: real time    0.00
    CHARGE:  cpu time    0.78: real time    0.78
    MIXING:  cpu time    0.01: real time    0.01
    --------------------------------------------
      LOOP:  cpu time   15.51: real time   15.52

 eigenvalue-minimisations  :  9256
 total energy-change (2. order) : 0.1686630E-03  (-0.4933371E-04)
 number of electron      95.0000001 magnetization 
 augmentation part        5.6721779 magnetization 

 Broyden mixing:
  rms(total) = 0.19088E-02    rms(broyden)= 0.19083E-02
  rms(prec ) = 0.35385E-02
  weight for this iteration     100.00

 eigenvalues of (default mixing * dielectric matrix)
  average eigenvalue GAMMA=   1.6134
  6.4328  3.4036  2.7339  2.3643  1.2990  1.2990  0.9165  0.9165  0.9911  0.8474
  0.7582  0.7582  0.7417  0.3843  0.3542

 Free energy of the ion-electron system (eV)
  ---------------------------------------------------
  alpha Z        PSCENC =       108.69803056
  Ewald energy   TEWEN  =     30788.29269985
  -Hartree energ DENC   =    -35593.17324578
  -exchange      EXHF   =         0.00000000
  -V(xc)+E(xc)   XCENC  =      -404.95789250
  PAW double counting   =      5765.61829785    -5042.08573575
  entropy T*S    EENTRO =        -0.00838817
  eigenvalues    EBANDS =      -251.15443475
  atomic energy  EATOM  =      4496.35971583
  ---------------------------------------------------
  free energy    TOTEN  =      -132.41095286 eV

  energy without entropy =     -132.40256469  energy(sigma->0) =     -132.40675877


--------------------------------------------------------------------------------------------------------




----------------------------------------- Iteration    1(  21)  ---------------------------------------


    POTLOK:  cpu time    0.11: real time    0.11
    SETDIJ:  cpu time    0.10: real time    0.10
     EDDAV:  cpu time   13.67: real time   13.68
       DOS:  cpu time    0.00: real time    0.00
    CHARGE:  cpu time    0.77: real time    0.77
    MIXING:  cpu time    0.01: real time    0.01
    --------------------------------------------
      LOOP:  cpu time   14.68: real time   14.69

 eigenvalue-minimisations  :  8680
 total energy-change (2. order) : 0.9275233E-04  (-0.4533112E-04)
 number of electron      95.0000001 magnetization 
 augmentation part        5.6724745 magnetization 

 Broyden mixing:
  rms(total) = 0.23158E-02    rms(broyden)= 0.23152E-02
  rms(prec ) = 0.24111E-02
  weight for this iteration     100.00

 eigenvalues of (default mixing * dielectric matrix)
  average eigenvalue GAMMA=   1.6791
  7.6884  3.5642  2.6178  2.4865  1.2076  1.2076  1.1906  0.9221  0.9221  0.9988
  0.9988  0.8450  0.7386  0.7386  0.3843  0.3542

 Free energy of the ion-electron system (eV)
  ---------------------------------------------------
  alpha Z        PSCENC =       108.69803056
  Ewald energy   TEWEN  =     30788.29269985
  -Hartree energ DENC   =    -35594.08359652
  -exchange      EXHF   =         0.00000000
  -V(xc)+E(xc)   XCENC  =      -404.96467701
  PAW double counting   =      5764.00963466    -5040.47597082
  entropy T*S    EENTRO =        -0.00856085
  eigenvalues    EBANDS =      -250.23813581
  atomic energy  EATOM  =      4496.35971583
  ---------------------------------------------------
  free energy    TOTEN  =      -132.41086011 eV

  energy without entropy =     -132.40229926  energy(sigma->0) =     -132.40657968


[...]
     45       3.6158      2.00000
     46       4.1219      2.00000
     47       4.1220      2.00000
     48       4.2797      2.00000
     49       5.2698      0.00000
     50       5.5508      0.00000
     51       5.5554      0.00000
     52       5.9434      0.00000
     53       7.3392      0.00000
     54       7.8658      0.00000
     55       8.5430      0.00000
     56       8.6218      0.00000
     57       8.6370      0.00000
     58       8.8860      0.00000
     59       9.3732      0.00000
     60       9.5366      0.00000
     61       9.6835      0.00000
     62       9.7486      0.00000

 k-point    47 :      -0.3846    0.3846   -0.0000
  band No.  band energies     occupation 
      1     -14.6403      2.00000
      2     -14.6135      2.00000
      3     -14.5584      2.00000
      4     -14.4919      2.00000
      5     -14.4141      2.00000
      6     -14.3361      2.00000
      7     -14.2624      2.00000
      8     -14.2064      2.00000
      9     -14.1634      2.00000
     10      -2.6223      2.00000
     11      -2.5133      2.00000
     12      -2.4140      2.00000
     13      -2.3324      2.00000
     14      -2.2884      2.00000
     15      -2.1863      2.00000
     16      -2.1237      2.00000
     17      -2.0294      2.00000
     18      -1.9324      2.00000
     19      -1.8946      2.00000
     20      -1.5922      2.00000
     21      -1.1948      2.00000
     22      -0.9447      2.00000
     23      -0.5934      2.00000
     24      -0.3776      2.00000
     25      -0.2346      2.00000
     26       0.0737      2.00000
     27       0.2784      2.00000
     28       0.2955      2.00000
     29       0.3114      2.00000
     30       0.3318      2.00000
     31       0.4041      2.00000
     32       0.4128      2.00000
     33       0.4932      2.00000
     34       0.5173      2.00000
     35       0.5969      2.00000
     36       0.6794      2.00000
     37       0.7022      2.00000
     38       0.8022      2.00000
     39       0.8620      2.00000
     40       0.8798      2.00000
     41       0.9377      2.00000
     42       1.2379      2.00000
     43       2.4510      2.00000
     44       3.1275      2.00000
     45       3.5997      2.00000
     46       4.5312      2.00000
     47       4.6463      2.00000
     48       4.6481      2.00000
     49       5.2277      0.00000
     50       5.2647      0.00000
     51       5.2962      0.00000
     52       6.1204      0.00000
     53       7.8974      0.00000
     54       8.3706      0.00000
     55       8.9437      0.00000
     56       8.9799      0.00000
     57       9.3600      0.00000
     58       9.6117      0.00000
     59       9.7011      0.00000
     60       9.7162      0.00000
     61       9.8128      0.00000
     62       9.8584      0.00000

 k-point    48 :       0.4615    0.4615   -0.0000
  band No.  band energies     occupation 
      1     -14.3957      2.00000
      2     -14.3873      2.00000
      3     -14.3615      2.00000
      4     -14.3331      2.00000
      5     -14.2963      2.00000
      6     -14.2590      2.00000
      7     -14.2217      2.00000
      8     -14.1935      2.00000
      9     -14.1678      2.00000
     10      -2.9115      2.00000
     11      -2.8003      2.00000
     12      -2.6170      2.00000
     13      -2.4100      2.00000
     14      -2.4048      2.00000
     15      -2.3238      2.00000
     16      -2.2479      2.00000
     17      -2.1886      2.00000
     18      -2.1526      2.00000
     19      -0.4871      2.00000
     20      -0.4653      2.00000
     21      -0.3242      2.00000
     22      -0.2590      2.00000
     23      -0.1449      2.00000
     24      -0.1387      2.00000
     25      -0.0992      2.00000
     26       0.0277      2.00000
     27       0.0485      2.00000
     28       0.0765      2.00000
     29       0.1468      2.00000
     30       0.2007      2.00000
     31       0.3194      2.00000
     32       0.3311      2.00000
     33       0.4712      2.00000
     34       0.5286      2.00000
     35       0.6024      2.00000
     36       0.6432      2.00000
     37       0.6593      2.00000
     38       0.7287      2.00000
     39       0.7553      2.00000
     40       0.8039      2.00000
     41       1.6841      2.00000
     42       2.0280      2.00000
     43       2.3626      2.00000
     44       2.3626      2.00000
     45       2.5933      2.00000
     46       2.5933      2.00000
     47       3.3782      2.00000
     48       3.7229      2.00000
     49       5.5745      0.00000
     50       5.8400      0.00000
     51       6.2581      0.00000
     52       6.2601      0.00000
     53       7.0854      0.00000
     54       7.5936      0.00000
     55       7.7678      0.00000
     56       7.7703      0.00000
     57       7.8742      0.00000
     58       8.6400      0.00000
     59       9.5711      0.00000
     60       9.7430      0.00000
     61       9.8043      0.00000
     62       9.8492      0.00000

 k-point    49 :      -0.4615    0.4615   -0.0000
  band No.  band energies     occupation 
      1     -14.4450      2.00000
      2     -14.4325      2.00000
      3     -14.4005      2.00000
      4     -14.3641      2.00000
      5     -14.3192      2.00000
      6     -14.2740      2.00000
      7     -14.2300      2.00000
      8     -14.1969      2.00000
      9     -14.1682      2.00000
     10      -2.9316      2.00000
     11      -2.8198      2.00000
     12      -2.6355      2.00000
     13      -2.4399      2.00000
     14      -2.4263      2.00000
     15      -2.3510      2.00000
     16      -2.2655      2.00000
     17      -2.2023      2.00000
     18      -2.1647      2.00000
     19      -1.0206      2.00000
     20      -0.6662      2.00000
     21      -0.5176      2.00000
     22      -0.2897      2.00000
     23      -0.2089      2.00000
     24      -0.1109      2.00000
     25      -0.0566      2.00000
     26       0.1149      2.00000
     27       0.1810      2.00000
     28       0.2255      2.00000
     29       0.2621      2.00000
     30       0.3346      2.00000
     31       0.4240      2.00000
     32       0.5081      2.00000
     33       0.5281      2.00000
     34       0.6016      2.00000
     35       0.6339      2.00000
     36       0.7343      2.00000
     37       0.7671      2.00000
     38       0.8123      2.00000
     39       0.8705      2.00000
     40       0.9901      2.00000
     41       1.3988      2.00000
     42       1.6449      2.00000
     43       1.6451      2.00000
     44       2.4158      2.00000
     45       2.8821      2.00000
     46       3.1957      2.00000
     47       3.1957      2.00000
     48       4.2626      2.00000
     49       4.8943      1.99911
     50       5.9295      0.00000
     51       5.9322      0.00000
     52       6.3542      0.00000
     53       6.6392      0.00000
     54       7.9617      0.00000
     55       7.9669      0.00000
     56       8.1306      0.00000
     57       9.2868      0.00000
     58       9.3696      0.00000
     59       9.4904      0.00000
     60       9.6157      0.00000
     61       9.8442      0.00000
     62      10.0960      0.00000


--------------------------------------------------------------------------------------------------------


 soft charge-density along one line, spin component           1
         0         1         2         3         4         5         6         7         8         9
 total charge-density along one line
 
 pseudopotential strength for first ion, spin component:           1
 12.358   0.000 -15.050   0.000  -0.000   0.000  -0.000   0.000   0.000   0.000   0.000   0.000   0.000   0.000  -0.000   0.000
-15.050   0.000  18.349   0.000   0.000   0.000   0.000   0.000  -0.000   0.000  -0.000   0.000  -0.000   0.000   0.000   0.000
 -0.000   0.000   0.000   0.000  -8.546   0.000  -0.000   0.000  -0.000   0.000  10.278   0.000   0.000   0.000   0.000   0.000
 -0.000   0.000   0.000   0.000  -0.000   0.000  -8.547   0.000   0.000   0.000   0.000   0.000  10.279   0.000  -0.000   0.000
  0.000   0.000  -0.000   0.000  -0.000   0.000   0.000   0.000  -8.546   0.000   0.000   0.000  -0.000   0.000  10.278   0.000
  0.000   0.000  -0.000   0.000  10.278   0.000   0.000   0.000   0.000   0.000 -12.211   0.000  -0.000   0.000  -0.000   0.000
  0.000   0.000  -0.000   0.000   0.000   0.000  10.279   0.000  -0.000   0.000  -0.000   0.000 -12.212   0.000   0.000   0.000
 -0.000   0.000   0.000   0.000   0.000   0.000  -0.000   0.000  10.278   0.000  -0.000   0.000   0.000   0.000 -12.211   0.000
 total augmentation occupancy for first ion, spin component:           1
  2.610   0.367  -0.000   0.000   0.000  -0.000  -0.000   0.000
  0.367   0.069   0.000   0.000  -0.000  -0.000  -0.000   0.000
 -0.000   0.000   2.168   0.000  -0.000   0.262   0.000   0.000
  0.000   0.000   0.000   2.167  -0.000   0.000   0.263  -0.000
  0.000  -0.000  -0.000  -0.000   2.167   0.000  -0.000   0.262
 -0.000  -0.000   0.262   0.000   0.000   0.034   0.000   0.000
 -0.000  -0.000   0.000   0.263  -0.000   0.000   0.034  -0.000
  0.000   0.000   0.000  -0.000   0.262   0.000  -0.000   0.034


------------------------ aborting loop because EDIFF is reached ----------------------------------------


    CHARGE:  cpu time    0.77: real time    0.77
    FORLOC:  cpu time    0.04: real time    0.04
    FORNL :  cpu time    7.00: real time    7.01
    STRESS:  cpu time    7.60: real time    7.60
    FORCOR:  cpu time    0.15: real time    0.15
    FORHAR:  cpu time    0.06: real time    0.06
    MIXING:  cpu time    0.00: real time    0.00
    OFIELD:  cpu time    0.00: real time    0.00

  FORCE on cell =-STRESS in cart. coord.  units (eV):
  Direction    XX          YY          ZZ          XY          YZ          ZX
  --------------------------------------------------------------------------------------
  Alpha Z   108.69803   108.69803   108.69803
  Ewald   34502.31297 34488.58641-36959.74713    11.88778 -1238.95925   715.31352
  Hartree 35969.27491 35955.22938-35092.32639    12.16372 -1232.66067   711.67723
  E(xc)    -389.27613  -389.28294  -390.09865     0.00588    -0.01991     0.01149
  Local  -71596.40865-71568.62398 70927.04797   -24.06199  2471.65016 -1427.00827
  n-local   -25.73206   -32.76810   -26.10595    -2.08206     1.71582     2.75525
  augment    53.67133    53.67313    53.41036    -0.00159    -0.00732     0.00423
  Kinetic  1390.08798  1365.90837  1378.89057    -7.06347     0.74334     1.35049
  Fock        0.00000     0.00000     0.00000     0.00000     0.00000     0.00000
  -------------------------------------------------------------------------------------
  Total      -3.03749    -2.91384    -0.23118    -0.10708     0.06948    -0.04011
  in kB     -13.08272   -12.55014    -0.99573    -0.46122     0.29924    -0.17277
  external pressure =       -8.88 kB  Pullay stress =        0.00 kB


 VOLUME and BASIS-vectors are now :
 -----------------------------------------------------------------------------
  energy-cutoff  :      520.00
  volume of cell :      371.99
      direct lattice vectors                 reciprocal lattice vectors
     2.592590006 -1.495275227  0.051895165     0.385647454 -0.000230831 -0.003292993
     0.001348276  2.992885737 -0.051895149     0.192623822  0.334096009  0.003292993
     0.408967606 -0.708352458 47.944482347    -0.000208929  0.000361876  0.020864586

  length of vectors
     2.993336608  2.993335925 47.951458843     0.385661582  0.385661670  0.020868770


 FORCES acting on ions
    electron-ion (+dipol)            ewald-force                    non-local-force                 convergence-correction
 -----------------------------------------------------------------------------------------------
   -.131E+02 0.228E+02 0.131E+04   0.131E+02 -.228E+02 -.131E+04   -.131E-03 0.226E-03 0.397E-01   0.215E-03 -.373E-03 -.214E-01
   0.271E-02 -.470E-02 -.276E+00   -.272E-02 0.472E-02 0.280E+00   0.393E-04 -.681E-04 -.511E-02   0.923E-05 -.160E-04 -.922E-03
   0.132E+02 -.228E+02 -.131E+04   -.132E+02 0.228E+02 0.131E+04   0.112E-03 -.194E-03 -.378E-01   -.221E-03 0.383E-03 0.220E-01
   -.175E+02 0.303E+02 0.175E+04   0.175E+02 -.303E+02 -.175E+04   -.701E-02 0.121E-01 0.732E+00   0.198E-03 -.343E-03 -.196E-01
   -.876E+01 0.152E+02 0.874E+03   0.876E+01 -.152E+02 -.874E+03   -.814E-04 0.141E-03 0.286E-01   0.202E-03 -.351E-03 -.201E-01
   -.438E+01 0.758E+01 0.437E+03   0.438E+01 -.758E+01 -.437E+03   0.226E-03 -.392E-03 -.149E-01   0.127E-03 -.219E-03 -.126E-01
   0.438E+01 -.759E+01 -.438E+03   -.438E+01 0.759E+01 0.438E+03   -.248E-03 0.430E-03 0.155E-01   -.115E-03 0.199E-03 0.115E-01
   0.876E+01 -.152E+02 -.875E+03   -.876E+01 0.152E+02 0.875E+03   0.616E-04 -.107E-03 -.276E-01   -.199E-03 0.345E-03 0.198E-01
   0.175E+02 -.303E+02 -.175E+04   -.175E+02 0.303E+02 0.175E+04   0.700E-02 -.121E-01 -.731E+00   -.206E-03 0.357E-03 0.205E-01
   -.640E+01 0.111E+02 0.638E+03   0.640E+01 -.111E+02 -.638E+03   -.537E-03 0.929E-03 0.215E+00   0.629E-04 -.109E-03 -.629E-02
   -.219E+01 0.379E+01 0.219E+03   0.219E+01 -.379E+01 -.219E+03   0.231E-03 -.400E-03 0.620E-02   0.585E-04 -.101E-03 -.584E-02
   0.219E+01 -.380E+01 -.219E+03   -.219E+01 0.380E+01 0.219E+03   -.247E-03 0.427E-03 -.689E-02   -.560E-04 0.969E-04 0.559E-02
   0.641E+01 -.111E+02 -.638E+03   -.641E+01 0.111E+02 0.638E+03   0.530E-03 -.919E-03 -.214E+00   -.653E-04 0.113E-03 0.652E-02
   -.512E+01 0.886E+01 0.511E+03   0.512E+01 -.886E+01 -.511E+03   0.733E-03 -.127E-02 -.303E-01   0.701E-04 -.121E-03 -.700E-02
   -.365E+01 0.633E+01 0.365E+03   0.365E+01 -.632E+01 -.365E+03   0.428E-03 -.741E-03 0.393E-02   0.708E-04 -.123E-03 -.708E-02
   -.729E+00 0.126E+01 0.728E+02   0.729E+00 -.126E+01 -.728E+02   -.413E-04 0.716E-04 0.616E-02   0.237E-04 -.411E-04 -.237E-02
   0.731E+00 -.127E+01 -.730E+02   -.731E+00 0.127E+01 0.730E+02   0.970E-06 -.168E-05 -.508E-02   -.183E-04 0.317E-04 0.183E-02
   0.365E+01 -.633E+01 -.365E+03   -.365E+01 0.633E+01 0.365E+03   -.439E-03 0.761E-03 -.440E-02   -.717E-04 0.124E-03 0.716E-02
   0.512E+01 -.887E+01 -.511E+03   -.512E+01 0.887E+01 0.511E+03   -.707E-03 0.122E-02 0.291E-01   -.726E-04 0.126E-03 0.726E-02
   -.866E-02 0.150E-01 0.866E+00   0.867E-02 -.150E-01 -.866E+00   -.595E-05 0.103E-04 0.343E-03   0.403E-06 -.698E-06 -.402E-04
   -.826E+01 0.143E+02 0.825E+03   0.823E+01 -.142E+02 -.821E+03   0.329E-01 -.570E-01 -.330E+01   0.883E-04 -.153E-03 -.882E-02
   -.192E+01 0.332E+01 0.191E+03   0.193E+01 -.335E+01 -.193E+03   -.160E-01 0.276E-01 0.156E+01   0.509E-04 -.882E-04 -.508E-02
   -.930E+00 0.161E+01 0.930E+02   0.931E+00 -.161E+01 -.930E+02   -.108E-02 0.187E-02 0.599E-02   0.264E-04 -.457E-04 -.264E-02
   0.826E+01 -.143E+02 -.825E+03   -.823E+01 0.143E+02 0.822E+03   -.329E-01 0.570E-01 0.330E+01   -.907E-04 0.157E-03 0.906E-02
   0.913E+00 -.158E+01 -.913E+02   -.914E+00 0.158E+01 0.913E+02   0.107E-02 -.186E-02 -.571E-02   -.257E-04 0.446E-04 0.257E-02
   0.190E+01 -.329E+01 -.189E+03   -.191E+01 0.332E+01 0.191E+03   0.160E-01 -.276E-01 -.156E+01   -.509E-04 0.881E-04 0.508E-02
 -----------------------------------------------------------------------------------------------
   0.760E-04 -.132E-03 0.267E-02   0.970E-13 0.111E-13 -.256E-12   -.858E-04 0.149E-03 -.143E-02   0.108E-04 -.186E-04 -.109E-02
 
 
 POSITION                                       TOTAL-FORCE (eV/Angst)
 -----------------------------------------------------------------------------------
      1.58408      0.25152     17.83939        -0.000098      0.000170      0.008488
      1.51204      0.37628     25.20747         0.000037     -0.000064     -0.002692
      1.44002      0.50104     32.57502         0.000093     -0.000162     -0.007180
      0.74449      1.70573     15.35598         0.000094     -0.000163      0.000629
      2.42371     -1.20277     20.32749        -0.000031      0.000055      0.014705
      0.67221      1.83092     22.71566         0.000184     -0.000319     -0.007548
      2.35188     -1.07836     27.69894        -0.000180      0.000312      0.008024
      0.60039      1.95532     30.08704         0.000026     -0.000045     -0.014094
      2.27961     -0.95317     35.05835        -0.000104      0.000180      0.000266
      1.62062      0.18822     14.13342         0.000188     -0.000326     -0.009174
      1.54794      0.31411     21.52113         0.000037     -0.000065      0.010726
      1.47616      0.43845     28.89350        -0.000035      0.000061     -0.011931
      1.40348      0.56433     36.28089        -0.000199      0.000344      0.009872
      2.45989     -1.26543     16.64779         0.000332     -0.000576     -0.019712
      0.70824      1.76852     19.03137         0.000155     -0.000269      0.006923
      2.38775     -1.14049     24.01284        -0.000107      0.000186      0.012226
      0.63634      1.89304     26.40179         0.000071     -0.000123     -0.009858
      2.31586     -1.01596     31.38315        -0.000157      0.000271     -0.007429
      0.56421      2.01799     33.76670        -0.000306      0.000530      0.017809
      2.60293     -1.51319      1.29432        -0.000002      0.000003      0.000134
      2.50849     -1.34961     11.75644         0.000061     -0.000105      0.002027
      1.69482      0.05971      5.65920         0.000011     -0.000019      0.011989
      0.85368      1.51661      3.40151        -0.000111      0.000192      0.004045
      0.51561      2.10216     38.65787        -0.000061      0.000106     -0.002178
      2.16992     -0.76318     47.02786         0.000109     -0.000190     -0.003907
      1.32877      0.69372     44.77026        -0.000009      0.000015     -0.012160
 -----------------------------------------------------------------------------------
    total drift:                                0.000001     -0.000002      0.000151


--------------------------------------------------------------------------------------------------------



  FREE ENERGIE OF THE ION-ELECTRON SYSTEM (eV)
  ---------------------------------------------------
  free  energy   TOTEN  =      -132.43407415 eV

  energy  without entropy=     -132.42766460  energy(sigma->0) =     -132.43086937
 
 d Force =-0.1547841E-06[-0.120E-05, 0.886E-06]  d Energy =-0.2609941E-05 0.246E-05
 d Force =-0.1612430E+01[-0.161E+01,-0.161E+01]  d Ewald  =-0.1612430E+01-0.218E-10


--------------------------------------------------------------------------------------------------------


    POTLOK:  cpu time    0.21: real time    0.21


--------------------------------------------------------------------------------------------------------




--------------------------------------------------------------------------------------------------------


  
 reached required accuracy - stopping structural energy minimisation
     LOOP+:  cpu time   66.51: real time   66.55
    4ORBIT:  cpu time    0.00: real time    0.00

 total amount of memory used by VASP on root node   221744. kBytes
========================================================================

   base      :      30000. kBytes
   nonl-proj :      40422. kBytes
   fftplans  :      62075. kBytes
   grid      :      24883. kBytes
   one-center:         56. kBytes
   wavefun   :      64308. kBytes
 
  
  
 General timing and accounting informations for this job:
 ========================================================
  
                  Total CPU time used (sec):     3248.151
                            User time (sec):     3231.482
                          System time (sec):       16.669
                         Elapsed time (sec):     3250.497
  
                   Maximum memory used (kb):      336992.
                   Average memory used (kb):           0.
  
                          Minor page faults:       913601
                          Major page faults:            0
                 Voluntary context switches:          112
