       N       E                     dE             d eps       ncg     rms          rms(c)
DAV:   1     0.474280421040E+03    0.47428E+03   -0.41241E+04  2620   0.132E+03
DAV:   2    -0.912537554676E+02   -0.56553E+03   -0.53625E+03  3416   0.250E+02
DAV:   3    -0.147205080329E+03   -0.55951E+02   -0.55620E+02  3042   0.845E+01
DAV:   4    -0.147956085368E+03   -0.75101E+00   -0.74962E+00  3064   0.106E+01
DAV:   5    -0.147968129756E+03   -0.12044E-01   -0.12040E-01  3062   0.133E+00    0.219E+01
DAV:   6    -0.133251900153E+03    0.14716E+02   -0.84003E+01  2932   0.288E+01    0.749E+00
DAV:   7    -0.133085329518E+03    0.16657E+00   -0.14580E+00  2902   0.503E+00    0.451E+00
DAV:   8    -0.132986885731E+03    0.98444E-01   -0.45513E-01  3006   0.375E+00    0.743E-01
DAV:   9    -0.132970217016E+03    0.16669E-01   -0.68940E-02  2930   0.109E+00    0.432E-01
DAV:  10    -0.132971171529E+03   -0.95451E-03   -0.40602E-02  2930   0.843E-01    0.274E-01
DAV:  11    -0.132970680683E+03    0.49085E-03   -0.38481E-03  3020   0.330E-01    0.163E-01
DAV:  12    -0.132970894517E+03   -0.21383E-03   -0.42267E-03  3208   0.321E-01    0.790E-02
DAV:  13    -0.132970814352E+03    0.80165E-04   -0.80652E-04  3036   0.133E-01    0.615E-02
DAV:  14    -0.132970748673E+03    0.65679E-04   -0.39122E-04  3042   0.930E-02    0.246E-02
DAV:  15    -0.132970726333E+03    0.22340E-04   -0.79202E-05  2914   0.429E-02    0.104E-02
DAV:  16    -0.132970702846E+03    0.23486E-04   -0.16585E-05  2022   0.323E-02    0.478E-03
DAV:  17    -0.132970679640E+03    0.23206E-04   -0.17488E-05  2244   0.414E-02    0.437E-03
DAV:  18    -0.132970661658E+03    0.17982E-04   -0.21102E-05  2382   0.495E-02    0.611E-03
DAV:  19    -0.132970652006E+03    0.96515E-05   -0.19400E-05  2266   0.515E-02
   1 F= -.13297065E+03 E0= -.13296804E+03  d E =-.132971E+03
       N       E                     dE             d eps       ncg     rms          rms(c)
DAV:   1    -0.132971894247E+03   -0.12326E-02   -0.19317E-02  2752   0.601E-01    0.244E-02
DAV:   2    -0.132971904836E+03   -0.10590E-04   -0.55411E-04  3030   0.100E-01    0.181E-02
DAV:   3    -0.132971887967E+03    0.16870E-04   -0.27062E-05  2458   0.277E-02    0.130E-02
DAV:   4    -0.132971864420E+03    0.23546E-04   -0.34407E-05  2618   0.391E-02    0.660E-03
DAV:   5    -0.132971847036E+03    0.17384E-04   -0.14057E-05  2002   0.302E-02    0.662E-03
DAV:   6    -0.132971831103E+03    0.15934E-04   -0.94801E-06  1906   0.316E-02    0.432E-03
DAV:   7    -0.132971815681E+03    0.15422E-04   -0.10030E-05  1982   0.394E-02    0.496E-03
DAV:   8    -0.132971797132E+03    0.18549E-04   -0.96133E-06  2074   0.629E-02    0.333E-03
DAV:   9    -0.132971782476E+03    0.14657E-04   -0.33811E-05  2610   0.830E-02    0.485E-03
DAV:  10    -0.132971780197E+03    0.22790E-05   -0.31222E-05  2424   0.457E-02
   2 F= -.13297178E+03 E0= -.13296910E+03  d E =-.112819E-02
       N       E                     dE             d eps       ncg     rms          rms(c)
DAV:   1    -0.132972370071E+03   -0.58760E-03   -0.24802E-02  2684   0.684E-01    0.278E-02
DAV:   2    -0.132972395305E+03   -0.25233E-04   -0.79742E-04  3022   0.120E-01    0.245E-02
DAV:   3    -0.132972374650E+03    0.20655E-04   -0.32360E-05  2674   0.334E-02    0.169E-02
DAV:   4    -0.132972341060E+03    0.33590E-04   -0.98366E-05  2862   0.611E-02    0.115E-02
DAV:   5    -0.132972330165E+03    0.10896E-04   -0.24369E-05  2462   0.240E-02    0.105E-02
DAV:   6    -0.132972315670E+03    0.14495E-04   -0.15987E-05  1972   0.216E-02    0.438E-03
DAV:   7    -0.132972301629E+03    0.14041E-04   -0.87978E-06  1966   0.301E-02    0.659E-03
DAV:   8    -0.132972289961E+03    0.11668E-04   -0.64348E-06  1842   0.350E-02    0.509E-03
DAV:   9    -0.132972270518E+03    0.19443E-04   -0.22094E-05  2370   0.823E-02    0.483E-03
DAV:  10    -0.132972263885E+03    0.66328E-05   -0.32130E-05  2526   0.567E-02
   3 F= -.13297226E+03 E0= -.13296950E+03  d E =-.161188E-02
       N       E                     dE             d eps       ncg     rms          rms(c)
DAV:   1    -0.132972855325E+03   -0.58481E-03   -0.21304E-01  2732   0.197E+00    0.553E-02
DAV:   2    -0.132973260702E+03   -0.40538E-03   -0.44364E-03  2896   0.260E-01    0.314E-02
DAV:   3    -0.132973235821E+03    0.24881E-04   -0.36119E-05  2794   0.290E-02    0.206E-02
DAV:   4    -0.132973214166E+03    0.21654E-04   -0.42869E-05  2802   0.379E-02    0.582E-03
DAV:   5    -0.132973212069E+03    0.20969E-05   -0.20240E-05  2120   0.228E-02    0.447E-03
DAV:   6    -0.132973209434E+03    0.26354E-05   -0.29687E-06  1622   0.124E-02
   4 F= -.13297321E+03 E0= -.13297039E+03  d E =-.945549E-03
       N       E                     dE             d eps       ncg     rms          rms(c)
DAV:   1    -0.132971310678E+03    0.19014E-02   -0.19154E+00  2688   0.591E+00    0.167E-01
DAV:   2    -0.132975017889E+03   -0.37072E-02   -0.40697E-02  2890   0.788E-01    0.980E-02
DAV:   3    -0.132974770251E+03    0.24764E-03   -0.34064E-04  3108   0.902E-02    0.653E-02
DAV:   4    -0.132974523216E+03    0.24703E-03   -0.50600E-04  3028   0.121E-01    0.230E-02
DAV:   5    -0.132974494120E+03    0.29097E-04   -0.17611E-04  2984   0.710E-02    0.158E-02
DAV:   6    -0.132974437814E+03    0.56306E-04   -0.35299E-05  2548   0.643E-02    0.869E-03
DAV:   7    -0.132974348785E+03    0.89029E-04   -0.41033E-05  2746   0.102E-01    0.108E-02
DAV:   8    -0.132974266772E+03    0.82013E-04   -0.61574E-05  2952   0.100E-01    0.117E-02
DAV:   9    -0.132974156475E+03    0.11030E-03   -0.67576E-05  3066   0.149E-01    0.973E-03
DAV:  10    -0.132974072836E+03    0.83640E-04   -0.16954E-04  3586   0.212E-01    0.132E-02
DAV:  11    -0.132974077327E+03   -0.44917E-05   -0.25280E-04  2938   0.120E-01    0.101E-02
DAV:  12    -0.132974087380E+03   -0.10053E-04   -0.12126E-04  2628   0.384E-02    0.144E-02
DAV:  13    -0.132974084090E+03    0.32897E-05   -0.13476E-05  1578   0.159E-02
   5 F= -.13297408E+03 E0= -.13297115E+03  d E =-.182021E-02
       N       E                     dE             d eps       ncg     rms          rms(c)
DAV:   1    -0.132974020338E+03    0.67042E-04   -0.71186E-02  2688   0.112E+00    0.319E-02
DAV:   2    -0.132974158926E+03   -0.13859E-03   -0.15153E-03  2890   0.147E-01    0.187E-02
DAV:   3    -0.132974150003E+03    0.89226E-05   -0.11418E-05  1956   0.172E-02    0.123E-02
DAV:   4    -0.132974142797E+03    0.72064E-05   -0.18204E-05  2152   0.226E-02    0.365E-03
DAV:   5    -0.132974141868E+03    0.92860E-06   -0.65596E-06  1590   0.148E-02    0.224E-03
DAV:   6    -0.132974140689E+03    0.11786E-05   -0.17255E-06  1590   0.987E-03
   6 F= -.13297414E+03 E0= -.13297123E+03  d E =-.187680E-02
       N       E                     dE             d eps       ncg     rms          rms(c)
DAV:   1    -0.132974545279E+03   -0.40341E-03   -0.12313E-01  2616   0.147E+00    0.433E-02
DAV:   2    -0.132974780698E+03   -0.23542E-03   -0.26411E-03  2882   0.195E-01    0.248E-02
DAV:   3    -0.132974766775E+03    0.13923E-04   -0.35387E-05  2794   0.314E-02    0.178E-02
DAV:   4    -0.132974755635E+03    0.11141E-04   -0.32542E-05  2540   0.341E-02    0.753E-03
DAV:   5    -0.132974752726E+03    0.29087E-05   -0.11360E-05  1700   0.242E-02    0.643E-03
DAV:   6    -0.132974751181E+03    0.15446E-05   -0.82847E-06  1612   0.169E-02
   7 F= -.13297475E+03 E0= -.13297182E+03  d E =-.610492E-03
       N       E                     dE             d eps       ncg     rms          rms(c)
DAV:   1    -0.132974054020E+03    0.69871E-03   -0.11084E+00  2604   0.442E+00    0.130E-01
DAV:   2    -0.132976178241E+03   -0.21242E-02   -0.23682E-02  2882   0.586E-01    0.742E-02
DAV:   3    -0.132976053833E+03    0.12441E-03   -0.29870E-04  3084   0.926E-02    0.520E-02
DAV:   4    -0.132975964056E+03    0.89777E-04   -0.27399E-04  2990   0.994E-02    0.211E-02
DAV:   5    -0.132975948951E+03    0.15105E-04   -0.10970E-04  3042   0.650E-02    0.178E-02
DAV:   6    -0.132975941058E+03    0.78923E-05   -0.62744E-05  2752   0.406E-02
   8 F= -.13297594E+03 E0= -.13297297E+03  d E =-.180037E-02
       N       E                     dE             d eps       ncg     rms          rms(c)
DAV:   1    -0.132967959682E+03    0.79893E-02   -0.44327E+00  2612   0.889E+00    0.258E-01
DAV:   2    -0.132976422335E+03   -0.84627E-02   -0.94185E-02  2876   0.118E+00    0.149E-01
DAV:   3    -0.132975912850E+03    0.50948E-03   -0.12027E-03  3092   0.189E-01    0.102E-01
DAV:   4    -0.132975552076E+03    0.36077E-03   -0.96094E-04  3006   0.194E-01    0.414E-02
DAV:   5    -0.132975484770E+03    0.67306E-04   -0.42666E-04  3138   0.133E-01    0.315E-02
DAV:   6    -0.132975454303E+03    0.30467E-04   -0.25475E-04  2958   0.876E-02    0.160E-02
DAV:   7    -0.132975426241E+03    0.28063E-04   -0.35250E-05  2474   0.530E-02    0.138E-02
DAV:   8    -0.132975403192E+03    0.23049E-04   -0.19292E-05  2068   0.423E-02    0.805E-03
DAV:   9    -0.132975360875E+03    0.42316E-04   -0.30196E-05  2556   0.873E-02    0.727E-03
DAV:  10    -0.132975318235E+03    0.42640E-04   -0.66361E-05  3132   0.128E-01    0.148E-02
DAV:  11    -0.132975290776E+03    0.27459E-04   -0.62668E-05  3010   0.113E-01    0.866E-03
DAV:  12    -0.132975283998E+03    0.67783E-05   -0.72853E-05  2804   0.724E-02
   9 F= -.13297528E+03 E0= -.13297224E+03  d E =-.114331E-02
       N       E                     dE             d eps       ncg     rms          rms(c)
DAV:   1    -0.132973213091E+03    0.20777E-02   -0.17497E+00  2604   0.566E+00    0.163E-01
DAV:   2    -0.132976507939E+03   -0.32948E-02   -0.37006E-02  2882   0.756E-01    0.934E-02
DAV:   3    -0.132976316041E+03    0.19190E-03   -0.50889E-04  3098   0.119E-01    0.676E-02
DAV:   4    -0.132976181621E+03    0.13442E-03   -0.52720E-04  2992   0.129E-01    0.281E-02
DAV:   5    -0.132976160933E+03    0.20688E-04   -0.16375E-04  3074   0.771E-02    0.239E-02
DAV:   6    -0.132976148616E+03    0.12317E-04   -0.11402E-04  2924   0.561E-02    0.836E-03
DAV:   7    -0.132976144191E+03    0.44253E-05   -0.13727E-05  1966   0.267E-02
  10 F= -.13297614E+03 E0= -.13297313E+03  d E =-.200350E-02
       N       E                     dE             d eps       ncg     rms          rms(c)
DAV:   1    -0.132976249074E+03   -0.10046E-03   -0.49072E-01  2636   0.302E+00    0.842E-02
DAV:   2    -0.132977184001E+03   -0.93493E-03   -0.10216E-02  2924   0.409E-01    0.484E-02
DAV:   3    -0.132977130975E+03    0.53026E-04   -0.11930E-04  3026   0.553E-02    0.347E-02
DAV:   4    -0.132977085931E+03    0.45044E-04   -0.16512E-04  3058   0.761E-02    0.142E-02
DAV:   5    -0.132977082425E+03    0.35062E-05   -0.63613E-05  2766   0.430E-02    0.166E-02
DAV:   6    -0.132977079149E+03    0.32752E-05   -0.16874E-05  1596   0.197E-02
  11 F= -.13297708E+03 E0= -.13297406E+03  d E =-.934958E-03
       N       E                     dE             d eps       ncg     rms          rms(c)
DAV:   1    -0.132973321871E+03    0.37606E-02   -0.26575E+00  2636   0.703E+00    0.199E-01
DAV:   2    -0.132978454280E+03   -0.51324E-02   -0.55664E-02  2918   0.946E-01    0.113E-01
DAV:   3    -0.132978178041E+03    0.27624E-03   -0.61536E-04  3128   0.125E-01    0.795E-02
DAV:   4    -0.132977965191E+03    0.21285E-03   -0.93509E-04  3092   0.175E-01    0.331E-02
DAV:   5    -0.132977958791E+03    0.64005E-05   -0.31228E-04  2986   0.893E-02    0.374E-02
DAV:   6    -0.132977941661E+03    0.17130E-04   -0.89108E-05  2742   0.437E-02    0.211E-02
DAV:   7    -0.132977919628E+03    0.22033E-04   -0.42007E-05  2772   0.432E-02    0.948E-03
DAV:   8    -0.132977903267E+03    0.16362E-04   -0.45786E-05  2744   0.570E-02    0.154E-02
DAV:   9    -0.132977894380E+03    0.88869E-05   -0.36882E-05  2560   0.401E-02
  12 F= -.13297789E+03 E0= -.13297488E+03  d E =-.175019E-02
       N       E                     dE             d eps       ncg     rms          rms(c)
DAV:   1    -0.132977558397E+03    0.34487E-03   -0.99803E-01  2652   0.429E+00    0.118E-01
DAV:   2    -0.132979472332E+03   -0.19139E-02   -0.20751E-02  2906   0.573E-01    0.699E-02
DAV:   3    -0.132979355484E+03    0.11685E-03   -0.21434E-04  3084   0.744E-02    0.482E-02
DAV:   4    -0.132979254539E+03    0.10094E-03   -0.29392E-04  2998   0.105E-01    0.165E-02
DAV:   5    -0.132979250913E+03    0.36255E-05   -0.12745E-04  2846   0.517E-02    0.168E-02
DAV:   6    -0.132979243288E+03    0.76254E-05   -0.23832E-05  2118   0.222E-02
  13 F= -.13297924E+03 E0= -.13297624E+03  d E =-.134891E-02
       N       E                     dE             d eps       ncg     rms          rms(c)
DAV:   1    -0.132974977222E+03    0.42737E-02   -0.28786E+00  2652   0.730E+00    0.201E-01
DAV:   2    -0.132980511073E+03   -0.55339E-02   -0.59738E-02  2906   0.978E-01    0.118E-01
DAV:   3    -0.132980181403E+03    0.32967E-03   -0.62405E-04  3092   0.131E-01    0.810E-02
DAV:   4    -0.132979903592E+03    0.27781E-03   -0.88472E-04  2998   0.180E-01    0.282E-02
DAV:   5    -0.132979902812E+03    0.78008E-06   -0.38413E-04  2986   0.896E-02    0.305E-02
DAV:   6    -0.132979888896E+03    0.13916E-04   -0.63076E-05  2728   0.348E-02    0.178E-02
DAV:   7    -0.132979866085E+03    0.22811E-04   -0.59376E-05  2902   0.342E-02    0.968E-03
DAV:   8    -0.132979853935E+03    0.12150E-04   -0.17994E-05  2038   0.297E-02    0.129E-02
DAV:   9    -0.132979845491E+03    0.84438E-05   -0.22496E-05  2228   0.314E-02
  14 F= -.13297985E+03 E0= -.13297688E+03  d E =-.195111E-02
       N       E                     dE             d eps       ncg     rms          rms(c)
DAV:   1    -0.132979845053E+03    0.88814E-05   -0.53500E-01  2612   0.317E+00    0.855E-02
DAV:   2    -0.132980871990E+03   -0.10269E-02   -0.10947E-02  2878   0.421E-01    0.494E-02
DAV:   3    -0.132980826336E+03    0.45654E-04   -0.12363E-04  3042   0.502E-02    0.343E-02
DAV:   4    -0.132980792412E+03    0.33924E-04   -0.11899E-04  2954   0.652E-02    0.122E-02
DAV:   5    -0.132980793897E+03   -0.14854E-05   -0.50605E-05  2558   0.318E-02    0.122E-02
DAV:   6    -0.132980791464E+03    0.24331E-05   -0.15436E-05  1704   0.183E-02
  15 F= -.13298079E+03 E0= -.13297785E+03  d E =-.945973E-03
       N       E                     dE             d eps       ncg     rms          rms(c)
DAV:   1    -0.132973489597E+03    0.73043E-02   -0.48138E+00  2612   0.951E+00    0.266E-01
DAV:   2    -0.132982965364E+03   -0.94758E-02   -0.10140E-01  2850   0.128E+00    0.149E-01
DAV:   3    -0.132982561696E+03    0.40367E-03   -0.11879E-03  3114   0.153E-01    0.104E-01
DAV:   4    -0.132982284854E+03    0.27684E-03   -0.13474E-03  3058   0.194E-01    0.413E-02
DAV:   5    -0.132982297343E+03   -0.12489E-04   -0.37238E-04  2962   0.877E-02    0.438E-02
DAV:   6    -0.132982274074E+03    0.23270E-04   -0.17581E-04  2868   0.658E-02    0.182E-02
DAV:   7    -0.132982270689E+03    0.33848E-05   -0.42079E-05  2434   0.339E-02
  16 F= -.13298227E+03 E0= -.13297939E+03  d E =-.242520E-02
       N       E                     dE             d eps       ncg     rms          rms(c)
DAV:   1    -0.132981258853E+03    0.10152E-02   -0.55766E-01  2612   0.324E+00    0.919E-02
DAV:   2    -0.132982363106E+03   -0.11043E-02   -0.11820E-02  2894   0.438E-01    0.489E-02
DAV:   3    -0.132982317328E+03    0.45778E-04   -0.13786E-04  3036   0.521E-02    0.346E-02
DAV:   4    -0.132982283650E+03    0.33678E-04   -0.16238E-04  3012   0.641E-02    0.152E-02
DAV:   5    -0.132982282078E+03    0.15717E-05   -0.39775E-05  2530   0.331E-02    0.165E-02
DAV:   6    -0.132982278177E+03    0.39013E-05   -0.16446E-05  1648   0.221E-02
  17 F= -.13298228E+03 E0= -.13297942E+03  d E =-.243269E-02
       N       E                     dE             d eps       ncg     rms          rms(c)
DAV:   1    -0.132982658814E+03   -0.37674E-03   -0.39114E-01  2652   0.268E+00    0.816E-02
DAV:   2    -0.132983454462E+03   -0.79565E-03   -0.88809E-03  2932   0.378E-01    0.502E-02
DAV:   3    -0.132983399159E+03    0.55302E-04   -0.11512E-04  3000   0.602E-02    0.372E-02
DAV:   4    -0.132983351119E+03    0.48040E-04   -0.25780E-04  2952   0.993E-02    0.173E-02
DAV:   5    -0.132983352018E+03   -0.89893E-06   -0.10138E-04  2810   0.485E-02    0.228E-02
DAV:   6    -0.132983348891E+03    0.31272E-05   -0.11783E-05  1608   0.154E-02
  18 F= -.13298335E+03 E0= -.13298051E+03  d E =-.107071E-02
       N       E                     dE             d eps       ncg     rms          rms(c)
DAV:   1    -0.132982970141E+03    0.38188E-03   -0.42597E-01  2652   0.279E+00    0.900E-02
DAV:   2    -0.132983817069E+03   -0.84693E-03   -0.99232E-03  2952   0.405E-01    0.536E-02
DAV:   3    -0.132983750543E+03    0.66526E-04   -0.18043E-04  2994   0.769E-02    0.411E-02
DAV:   4    -0.132983687082E+03    0.63461E-04   -0.19952E-04  2920   0.924E-02    0.170E-02
DAV:   5    -0.132983668684E+03    0.18399E-04   -0.10585E-04  3108   0.761E-02    0.207E-02
DAV:   6    -0.132983656961E+03    0.11723E-04   -0.63832E-05  2756   0.441E-02    0.989E-03
DAV:   7    -0.132983648894E+03    0.80675E-05   -0.14296E-05  1776   0.253E-02
  19 F= -.13298365E+03 E0= -.13298082E+03  d E =-.137072E-02
       N       E                     dE             d eps       ncg     rms          rms(c)
DAV:   1    -0.132983746417E+03   -0.89456E-04   -0.37181E-01  2692   0.261E+00    0.744E-02
DAV:   2    -0.132984429441E+03   -0.68302E-03   -0.79359E-03  2952   0.361E-01    0.498E-02
DAV:   3    -0.132984370375E+03    0.59066E-04   -0.12605E-04  3026   0.599E-02    0.351E-02
DAV:   4    -0.132984325596E+03    0.44779E-04   -0.14646E-04  2852   0.618E-02    0.144E-02
DAV:   5    -0.132984316180E+03    0.94155E-05   -0.37980E-05  2704   0.342E-02    0.106E-02
DAV:   6    -0.132984308030E+03    0.81503E-05   -0.31249E-05  2474   0.360E-02
  20 F= -.13298431E+03 E0= -.13298148E+03  d E =-.659136E-03
       N       E                     dE             d eps       ncg     rms          rms(c)
DAV:   1    -0.132984300267E+03    0.15913E-04   -0.31946E-02  2744   0.767E-01    0.221E-02
DAV:   2    -0.132984355293E+03   -0.55026E-04   -0.67782E-04  2954   0.105E-01    0.149E-02
DAV:   3    -0.132984347310E+03    0.79830E-05   -0.80608E-06  1856   0.171E-02    0.104E-02
DAV:   4    -0.132984336569E+03    0.10741E-04   -0.22420E-05  2394   0.304E-02    0.440E-03
DAV:   5    -0.132984334707E+03    0.18620E-05   -0.79481E-06  1590   0.156E-02    0.351E-03
DAV:   6    -0.132984331667E+03    0.30405E-05   -0.32114E-06  1614   0.138E-02
  21 F= -.13298433E+03 E0= -.13298150E+03  d E =-.682773E-03
       N       E                     dE             d eps       ncg     rms          rms(c)
DAV:   1    -0.132984442674E+03   -0.10797E-03   -0.20238E-02  2808   0.618E-01    0.211E-02
DAV:   2    -0.132984477858E+03   -0.35184E-04   -0.50960E-04  3016   0.984E-02    0.148E-02
DAV:   3    -0.132984470175E+03    0.76834E-05   -0.19563E-05  1896   0.290E-02    0.104E-02
DAV:   4    -0.132984462232E+03    0.79433E-05   -0.59684E-06  1680   0.246E-02    0.597E-03
DAV:   5    -0.132984452238E+03    0.99936E-05   -0.75967E-06  1928   0.420E-02    0.363E-03
DAV:   6    -0.132984450441E+03    0.17972E-05   -0.16014E-05  1780   0.241E-02
  22 F= -.13298445E+03 E0= -.13298162E+03  d E =-.118774E-03
