 vasp.5.3.5 31Mar14 (build Apr 08 2024 10:12:10) complex                        
  
 executed on             LinuxIFC date 2024.07.29  11:37:09
 running on    8 total cores
 distrk:  each k-point on    8 cores,    1 groups
 distr:  one band on NCORES_PER_BAND=   4 cores,    2 groups


--------------------------------------------------------------------------------------------------------


 INCAR:
 POTCAR:    PAW_PBE O 08Apr2002                   
 POTCAR:    PAW_PBE Mg 13Apr2007                  
 POTCAR:    PAW_PBE Al 04Jan2001                  
 POTCAR:    PAW_PBE O 08Apr2002                   
   VRHFIN =O: s2p4                                                              
   LEXCH  = PE                                                                  
   EATOM  =   432.3788 eV,   31.7789 Ry                                         
                                                                                
   TITEL  = PAW_PBE O 08Apr2002                                                 
   LULTRA =        F    use ultrasoft PP ?                                      
   IUNSCR =        1    unscreen: 0-lin 1-nonlin 2-no                           
   RPACOR =    1.200    partial core radius                                     
   POMASS =   16.000; ZVAL   =    6.000    mass and valenz                      
   RCORE  =    1.520    outmost cutoff radius                                   
   RWIGS  =    1.550; RWIGS  =    0.820    wigner-seitz radius (au A)           
   ENMAX  =  400.000; ENMIN  =  300.000 eV                                      
   ICORE  =        2    local potential                                         
   LCOR   =        T    correct aug charges                                     
   LPAW   =        T    paw PP                                                  
   EAUG   =  605.392                                                            
   DEXC   =    0.000                                                            
   RMAX   =    1.553    core radius for proj-oper                               
   RAUG   =    1.300    factor for augmentation sphere                          
   RDEP   =    1.550    radius for radial grids                                 
   RDEPT  =    1.329    core radius for aug-charge                              
                                                                                
   Atomic configuration                                                         
    4 entries                                                                   
     n  l   j            E        occ.                                          
     1  0  0.50      -514.6923   2.0000                                         
     2  0  0.50       -23.9615   2.0000                                         
     2  1  0.50        -9.0305   4.0000                                         
     3  2  1.50        -9.5241   0.0000                                         
   Description                                                                  
     l       E           TYP  RCUT    TYP  RCUT                                 
     0    -23.9615318     23  1.200                                             
     0     -9.5240782     23  1.200                                             
     1     -9.0304911     23  1.520                                             
     1      8.1634956     23  1.520                                             
     2     -9.5240782      7  1.500                                             
  local pseudopotential read in
  partial core-charges read in
  partial kinetic energy density read in
  kinetic energy density of atom read in
  atomic valenz-charges read in
  non local Contribution for L=           0  read in
    real space projection operators read in
  non local Contribution for L=           0  read in
    real space projection operators read in
  non local Contribution for L=           1  read in
    real space projection operators read in
  non local Contribution for L=           1  read in
    real space projection operators read in
    PAW grid and wavefunctions read in
 
   number of l-projection  operators is LMAX  =           4
   number of lm-projection operators is LMMAX =           8
 
 POTCAR:    PAW_PBE Mg 13Apr2007                  
   VRHFIN =Mg: s2p0                                                             
   LEXCH  = PE                                                                  
   EATOM  =    23.0369 eV,    1.6932 Ry                                         
                                                                                
   TITEL  = PAW_PBE Mg 13Apr2007                                                
   LULTRA =        F    use ultrasoft PP ?                                      
   IUNSCR =        1    unscreen: 0-lin 1-nonlin 2-no                           
   RPACOR =    1.500    partial core radius                                     
   POMASS =   24.305; ZVAL   =    2.000    mass and valenz                      
   RCORE  =    2.000    outmost cutoff radius                                   
   RWIGS  =    2.880; RWIGS  =    1.524    wigner-seitz radius (au A)           
   ENMAX  =  200.000; ENMIN  =  100.000 eV                                      
   RCLOC  =    1.506    cutoff for local pot                                    
   LCOR   =        T    correct aug charges                                     
   LPAW   =        T    paw PP                                                  
   EAUG   =  454.734                                                            
   DEXC   =    0.000                                                            
   RMAX   =    2.045    core radius for proj-oper                               
   RAUG   =    1.300    factor for augmentation sphere                          
   RDEP   =    2.025    radius for radial grids                                 
   RDEPT  =    1.942    core radius for aug-charge                              
                                                                                
   Atomic configuration                                                         
    6 entries                                                                   
     n  l   j            E        occ.                                          
     1  0  0.50     -1259.6230   2.0000                                         
     2  0  0.50       -79.8442   2.0000                                         
     2  1  1.50       -46.6121   6.0000                                         
     3  0  0.50        -4.7055   2.0000                                         
     3  1  0.50        -1.3660   0.0000                                         
     3  2  1.50        -1.3606   0.0000                                         
   Description                                                                  
     l       E           TYP  RCUT    TYP  RCUT                                 
     0     -4.7054661     23  2.000                                             
     0     27.2116520     23  2.000                                             
     1      1.3605826     23  2.000                                             
     1     27.2116520     23  2.000                                             
     2     -1.3605826     23  2.000                                             
  local pseudopotential read in
  partial core-charges read in
  partial kinetic energy density read in
  atomic valenz-charges read in
  non local Contribution for L=           0  read in
    real space projection operators read in
  non local Contribution for L=           0  read in
    real space projection operators read in
  non local Contribution for L=           1  read in
    real space projection operators read in
  non local Contribution for L=           1  read in
    real space projection operators read in
  non local Contribution for L=           2  read in
    real space projection operators read in
    PAW grid and wavefunctions read in
 
   number of l-projection  operators is LMAX  =           5
   number of lm-projection operators is LMMAX =          13
 
 POTCAR:    PAW_PBE Al 04Jan2001                  
   VRHFIN =Al: s2p1                                                             
   LEXCH  = PE                                                                  
   EATOM  =    53.5387 eV,    3.9350 Ry                                         
                                                                                
   TITEL  = PAW_PBE Al 04Jan2001                                                
   LULTRA =        F    use ultrasoft PP ?                                      
   IUNSCR =        1    unscreen: 0-lin 1-nonlin 2-no                           
   RPACOR =    1.500    partial core radius                                     
   POMASS =   26.981; ZVAL   =    3.000    mass and valenz                      
   RCORE  =    1.900    outmost cutoff radius                                   
   RWIGS  =    2.650; RWIGS  =    1.402    wigner-seitz radius (au A)           
   ENMAX  =  240.300; ENMIN  =  180.225 eV                                      
   ICORE  =        2    local potential                                         
   LCOR   =        T    correct aug charges                                     
   LPAW   =        T    paw PP                                                  
   EAUG   =  291.052                                                            
   DEXC   =    0.000                                                            
   RMAX   =    1.939    core radius for proj-oper                               
   RAUG   =    1.300    factor for augmentation sphere                          
   RDEP   =    1.966    radius for radial grids                                 
   RDEPT  =    1.856    core radius for aug-charge                              
                                                                                
   Atomic configuration                                                         
    6 entries                                                                   
     n  l   j            E        occ.                                          
     1  0  0.50     -1511.1048   2.0000                                         
     2  0  0.50      -108.1629   2.0000                                         
     2  1  1.50       -69.6402   6.0000                                         
     3  0  0.50        -7.7528   2.0000                                         
     3  1  1.50        -2.7121   1.0000                                         
     3  2  2.50        -2.7212   0.0000                                         
   Description                                                                  
     l       E           TYP  RCUT    TYP  RCUT                                 
     0     -7.7528455     23  1.900                                             
     0     -3.3096929     23  1.900                                             
     1     -2.7120682     23  1.900                                             
     1     13.6058260     23  1.900                                             
     2     -2.7211652      7  1.900                                             
  local pseudopotential read in
  partial core-charges read in
  partial kinetic energy density read in
  atomic valenz-charges read in
  non local Contribution for L=           0  read in
    real space projection operators read in
  non local Contribution for L=           0  read in
    real space projection operators read in
  non local Contribution for L=           1  read in
    real space projection operators read in
  non local Contribution for L=           1  read in
    real space projection operators read in
    PAW grid and wavefunctions read in
 
   number of l-projection  operators is LMAX  =           4
   number of lm-projection operators is LMMAX =           8
 

 ----------------------------------------------------------------------------- 
|                                                                             |
|  ADVICE TO THIS USER RUNNING 'VASP/VAMP'   (HEAR YOUR MASTER'S VOICE ...):  |
|                                                                             |
|      You have a (more or less) 'large supercell' and for larger cells       |
|      it might be more efficient to use real space projection opertators     |
|      So try LREAL= Auto  in the INCAR   file.                               |
|      Mind: At the moment your POTCAR file does not contain real space       |
|       projectors, and has to be modified,  BUT if you                       |
|      want to do an extremely  accurate calculation you might also keep the  |
|      reciprocal projection scheme          (i.e. LREAL=.FALSE.)             |
|                                                                             |
 ----------------------------------------------------------------------------- 

  PAW_PBE O 08Apr2002                   :
 energy of atom  1       EATOM= -432.3788
 kinetic energy error for atom=    0.0208 (will be added to EATOM!!)
  PAW_PBE Mg 13Apr2007                  :
 energy of atom  2       EATOM=  -23.0369
 kinetic energy error for atom=    0.0000 (will be added to EATOM!!)
  PAW_PBE Al 04Jan2001                  :
 energy of atom  3       EATOM=  -53.5387
 kinetic energy error for atom=    0.0002 (will be added to EATOM!!)
 
 
 POSCAR: Layer                                   
  positions in direct lattice
  velocities in cartesian coordinates
 exchange correlation table for  LEXCH =        8
   RHO(1)=    0.500       N(1)  =     2000
   RHO(2)=  100.500       N(2)  =     4000
 


--------------------------------------------------------------------------------------------------------


 ion  position               nearest neighbor table
   1  0.000  0.000  0.350-  17 2.14  17 2.14  17 2.14  14 2.14  14 2.14  14 2.14
   2  0.333  0.667  0.408-  14 2.14  14 2.14  14 2.14  11 2.14  11 2.14  11 2.14
   3  0.000  0.000  0.526-  15 2.14  15 2.14  15 2.14  18 2.14  18 2.14  18 2.14
   4  0.333  0.667  0.584-  15 2.14  15 2.14  15 2.14  12 2.14  12 2.14  12 2.14
   5  0.000  0.000  0.702-  16 2.14  16 2.14  16 2.14  19 2.14  19 2.14  19 2.14
   6  0.333  0.667  0.760-  16 2.14  16 2.14  16 2.14  13 2.16  13 2.16  13 2.16
   7  0.667  0.333  0.291-  17 2.14  17 2.14  17 2.14  10 2.16  10 2.16  10 2.16
   8  0.667  0.333  0.467-  18 2.14  18 2.14  18 2.14  11 2.14  11 2.14  11 2.14
   9  0.667  0.333  0.643-  19 2.14  19 2.14  19 2.14  12 2.14  12 2.14  12 2.14
  10  0.000  0.000  0.261-   7 2.16   7 2.16   7 2.16  21 2.96  17 3.09  17 3.09  17 3.09
  11  0.000  0.000  0.438-   8 2.14   8 2.14   8 2.14   2 2.14   2 2.14   2 2.14  14 3.06  14 3.06
                            14 3.06  18 3.06  18 3.06  18 3.06
  12  0.000  0.000  0.614-   4 2.14   4 2.14   4 2.14   9 2.14   9 2.14   9 2.14  19 3.06  19 3.06
                            19 3.06  15 3.06  15 3.06  15 3.06
  13  0.000  0.000  0.791-   6 2.16   6 2.16   6 2.16  24 2.96  16 3.09  16 3.09  16 3.09
  14  0.667  0.333  0.379-   2 2.14   2 2.14   2 2.14   1 2.14   1 2.14   1 2.14  11 3.06  11 3.06
                            11 3.06  17 3.06  17 3.06  17 3.06
  15  0.667  0.333  0.555-   3 2.14   3 2.14   3 2.14   4 2.14   4 2.14   4 2.14  18 3.06  18 3.06
                            18 3.06  12 3.06  12 3.06  12 3.06
  16  0.667  0.333  0.731-   5 2.14   5 2.14   5 2.14   6 2.14   6 2.14   6 2.14  19 3.06  19 3.06
                            19 3.06  13 3.09  13 3.09  13 3.09
  17  0.333  0.667  0.320-   1 2.14   1 2.14   1 2.14   7 2.14   7 2.14   7 2.14  14 3.06  14 3.06
                            14 3.06  10 3.09  10 3.09  10 3.09
  18  0.333  0.667  0.496-   3 2.14   3 2.14   3 2.14   8 2.14   8 2.14   8 2.14  15 3.06  15 3.06
                            15 3.06  11 3.06  11 3.06  11 3.06
  19  0.333  0.667  0.672-   9 2.14   9 2.14   9 2.14   5 2.14   5 2.14   5 2.14  16 3.06  16 3.06
                            16 3.06  12 3.06  12 3.06  12 3.06
  20  0.000  0.000  0.026-  23 2.93  23 2.93  23 2.93  25 2.93  25 2.93  25 2.93
  21  0.000  0.000  0.192-  10 2.96  22 2.97  22 2.97  22 2.97
  22  0.667  0.333  0.136-  23 2.94  23 2.94  23 2.94  21 2.97  21 2.97  21 2.97
  23  0.333  0.667  0.081-  20 2.93  20 2.93  20 2.93  22 2.94  22 2.94  22 2.94
  24  0.000  0.000  0.859-  13 2.96  26 2.97  26 2.97  26 2.97
  25  0.667  0.333  0.971-  20 2.93  20 2.93  20 2.93  26 2.95  26 2.95  26 2.95
  26  0.333  0.667  0.916-  25 2.95  25 2.95  25 2.95  24 2.97  24 2.97  24 2.97
 
  LATTYP: Found a hexagonal cell.
 ALAT       =     2.9929628358
 C/A-ratio  =    14.3854948362
  
  Lattice vectors:
  
 A1 = (   2.5919820457,  -1.4964810762,   0.0000000000)
 A2 = (   0.0000000000,   2.9929621524,   0.0000000000)
 A3 = (   0.0000000000,  -0.0000000000,  43.0552514194)


Analysis of symmetry for initial positions (statically):
=====================================================================
 Subroutine PRICEL returns:
 Original cell was already a primitive cell.
 

 Routine SETGRP: Setting up the symmetry group for a 
 hexagonal supercell.


 Subroutine GETGRP returns: Found  6 space group operations
 (whereof  6 operations were pure point group operations)
 out of a pool of 24 trial point group operations.


The static configuration has the point symmetry C_3v.


Analysis of symmetry for dynamics (positions and initial velocities):
=====================================================================
 Subroutine PRICEL returns:
 Original cell was already a primitive cell.
 

 Routine SETGRP: Setting up the symmetry group for a 
 hexagonal supercell.


 Subroutine GETGRP returns: Found  6 space group operations
 (whereof  6 operations were pure point group operations)
 out of a pool of 24 trial point group operations.


The dynamic configuration has the point symmetry C_3v.


Analysis of constrained symmetry for selective dynamics:
=====================================================================
 Subroutine PRICEL returns:
 Original cell was already a primitive cell.
 

 Routine SETGRP: Setting up the symmetry group for a 
 hexagonal supercell.


 Subroutine GETGRP returns: Found  6 space group operations
 (whereof  6 operations were pure point group operations)
 out of a pool of 24 trial point group operations.


The constrained configuration has the point symmetry C_3v.
 
 
 KPOINTS: K-Spacing Value to Generate K-Mesh: 0.02

Automatic generation of k-mesh.
Space group operators:
 irot       det(A)        alpha          n_x          n_y          n_z        tau_x        tau_y        tau_z
    1     1.000000     0.000000     1.000000     0.000000     0.000000     0.000000     0.000000     0.000000
    2     1.000000   120.000000    -0.000000     0.000000    -1.000000     0.000000     0.000000     0.000000
    3     1.000000   120.000000    -0.000000    -0.000000     1.000000     0.000000     0.000000     0.000000
    4    -1.000000   180.000000    -0.866025     0.500000     0.000000     0.000000     0.000000     0.000000
    5    -1.000000   180.000000     0.000000     1.000000     0.000000     0.000000     0.000000     0.000000
    6    -1.000000   180.000000    -0.866025    -0.500000    -0.000000     0.000000     0.000000     0.000000
 
 Subroutine IBZKPT returns following result:
 ===========================================
 
 Found     21 irreducible k-points:
 
 Following reciprocal coordinates:
            Coordinates               Weight
  0.000000  0.000000  0.000000      1.000000
  0.076923  0.000000 -0.000000      6.000000
  0.153846 -0.000000 -0.000000      6.000000
  0.230769 -0.000000 -0.000000      6.000000
  0.307692 -0.000000  0.000000      6.000000
  0.384615  0.000000 -0.000000      6.000000
  0.461538 -0.000000 -0.000000      6.000000
  0.076923  0.076923  0.000000      6.000000
  0.153846  0.076923  0.000000     12.000000
  0.230769  0.076923  0.000000     12.000000
  0.307692  0.076923  0.000000     12.000000
  0.384615  0.076923  0.000000     12.000000
  0.461538  0.076923  0.000000      6.000000
  0.153846  0.153846  0.000000      6.000000
  0.230769  0.153846  0.000000     12.000000
  0.307692  0.153846  0.000000     12.000000
  0.384615  0.153846  0.000000     12.000000
  0.230769  0.230769  0.000000      6.000000
  0.307692  0.230769  0.000000     12.000000
  0.384615  0.230769  0.000000      6.000000
  0.307692  0.307692  0.000000      6.000000
 
 Following cartesian coordinates:
            Coordinates               Weight
  0.000000  0.000000  0.000000      1.000000
  0.029677 -0.000000 -0.000000      6.000000
  0.059355 -0.000000 -0.000000      6.000000
  0.089032 -0.000000 -0.000000      6.000000
  0.118709 -0.000000 -0.000000      6.000000
  0.148387 -0.000000 -0.000000      6.000000
  0.178064 -0.000000 -0.000000      6.000000
  0.044516  0.025701  0.000000      6.000000
  0.074193  0.025701  0.000000     12.000000
  0.103871  0.025701  0.000000     12.000000
  0.133548  0.025701  0.000000     12.000000
  0.163225  0.025701  0.000000     12.000000
  0.192903  0.025701  0.000000      6.000000
  0.089032  0.051403  0.000000      6.000000
  0.118709  0.051403  0.000000     12.000000
  0.148387  0.051403  0.000000     12.000000
  0.178064  0.051403  0.000000     12.000000
  0.133548  0.077104  0.000000      6.000000
  0.163225  0.077104  0.000000     12.000000
  0.192903  0.077104  0.000000      6.000000
  0.178064  0.102805  0.000000      6.000000
 


--------------------------------------------------------------------------------------------------------




 Dimension of arrays:
   k-points           NKPTS =     21   k-points in BZ     NKDIM =     21   number of bands    NBANDS=     62
   number of dos      NEDOS =    301   number of ions     NIONS =     26
   non local maximal  LDIM  =      5   non local SUM 2l+1 LMDIM =     13
   total plane-waves  NPLWV = 184320
   max r-space proj   IRMAX =      1   max aug-charges    IRDMAX= 187714
   dimension x,y,z NGX =    24 NGY =   24 NGZ =  320
   dimension x,y,z NGXF=    48 NGYF=   48 NGZF=  640
   support grid    NGXF=    96 NGYF=   96 NGZF= 1280
   ions per type =               9  10   7
 NGX,Y,Z   is equivalent  to a cutoff of  13.33, 13.33, 12.36 a.u.
 NGXF,Y,Z  is equivalent  to a cutoff of  26.66, 26.66, 24.71 a.u.


 I would recommend the setting:
   dimension x,y,z NGX =    22 NGY =   22 NGZ =  320
 SYSTEM =  unknown system                          
 POSCAR =  Layer                                   

 Startparameter for this run:
   NWRITE =      2    write-flag & timer
   PREC   = accura    normal or accurate (medium, high low for compatibility)
   ISTART =      0    job   : 0-new  1-cont  2-samecut
   ICHARG =      2    charge: 1-file 2-atom 10-const
   ISPIN  =      1    spin polarized calculation?
   LNONCOLLINEAR =      F non collinear calculations
   LSORBIT =      F    spin-orbit coupling
   INIWAV =      1    electr: 0-lowe 1-rand  2-diag
   LASPH  =      F    aspherical Exc in radial PAW
   METAGGA=      F    non-selfconsistent MetaGGA calc.

 Electronic Relaxation 1
   ENCUT  =  520.0 eV  38.22 Ry    6.18 a.u.   5.56  5.56 80.05*2*pi/ulx,y,z
   ENINI  =  520.0     initial cutoff
   ENAUG  =  605.4 eV  augmentation charge cutoff
   NELM   =    100;   NELMIN=  6; NELMDL=  0     # of ELM steps 
   EDIFF  = 0.1E-04   stopping-criterion for ELM
   LREAL  =      F    real-space projection
   NLSPLINE    = F    spline interpolate recip. space projectors
   LCOMPAT=      F    compatible to vasp.4.4
   GGA_COMPAT  = T    GGA compatible to vasp.4.4-vasp.4.6
   LMAXPAW     = -100 max onsite density
   LMAXMIX     =    2 max onsite mixed and CHGCAR
   VOSKOWN=      0    Vosko Wilk Nusair interpolation
   ROPT   =    0.00000   0.00000   0.00000
 Ionic relaxation
   EDIFFG = -.2E-01   stopping-criterion for IOM
   NSW    =    500    number of steps for IOM
   NBLOCK =      1;   KBLOCK =    500    inner block; outer block 
   IBRION =      2    ionic relax: 0-MD 1-quasi-New 2-CG
   NFREE  =      1    steps in history (QN), initial steepest desc. (CG)
   ISIF   =      2    stress and relaxation
   IWAVPR =     11    prediction:  0-non 1-charg 2-wave 3-comb
   ISYM   =      2    0-nonsym 1-usesym 2-fastsym
   LCORR  =      T    Harris-Foulkes like correction to forces

   POTIM  = 0.5000    time-step for ionic-motion
   TEIN   =    0.0    initial temperature
   TEBEG  =    0.0;   TEEND  =   0.0 temperature during run
   SMASS  =  -3.00    Nose mass-parameter (am)
   estimated Nose-frequenzy (Omega)   =  0.10E-29 period in steps =****** mass=  -0.205E-27a.u.
   SCALEE = 1.0000    scale energy and forces
   NPACO  =    256;   APACO  = 16.0  distance and # of slots for P.C.
   PSTRESS=    0.0 pullay stress

  Mass of Ions in am
   POMASS =  16.00 24.30 26.98
  Ionic Valenz
   ZVAL   =   6.00  2.00  3.00
  Atomic Wigner-Seitz radii
   RWIGS  =  -1.00 -1.00 -1.00
  virtual crystal weights 
   VCA    =   1.00  1.00  1.00
   NELECT =      95.0000    total number of electrons
   NUPDOWN=      -1.0000    fix difference up-down

 DOS related values:
   EMIN   =  10.00;   EMAX   =-10.00  energy-range for DOS
   EFERMI =   0.00
   ISMEAR =     0;   SIGMA  =   0.05  broadening in eV -4-tet -1-fermi 0-gaus

 Electronic relaxation 2 (details)
   IALGO  =     38    algorithm
   LDIAG  =      T    sub-space diagonalisation (order eigenvalues)
   LSUBROT=      F    optimize rotation matrix (better conditioning)
   TURBO    =      0    0=normal 1=particle mesh
   IRESTART =      0    0=no restart 2=restart with 2 vectors
   NREBOOT  =      0    no. of reboots
   NMIN     =      0    reboot dimension
   EREF     =   0.00    reference energy to select bands
   IMIX   =      4    mixing-type and parameters
     AMIX     =   0.40;   BMIX     =  1.00
     AMIX_MAG =   1.60;   BMIX_MAG =  1.00
     AMIN     =   0.01
     WC   =   100.;   INIMIX=   1;  MIXPRE=   1;  MAXMIX= -45

 Intra band minimization:
   WEIMIN = 0.0010     energy-eigenvalue tresh-hold
   EBREAK =  0.40E-07  absolut break condition
   DEPER  =   0.30     relativ break condition  

   TIME   =   0.40     timestep for ELM

  volume/ion in A,a.u.               =      12.85        86.69
  Fermi-wavevector in a.u.,A,eV,Ry     =   1.076621  2.034519 15.770692  1.159113
  Thomas-Fermi vector in A             =   2.212511
 
 Write flags
   LWAVE  =      F    write WAVECAR
   LCHARG =      T    write CHGCAR
   LVTOT  =      F    write LOCPOT, total local potential
   LVHAR  =      F    write LOCPOT, Hartree potential only
   LELF   =      F    write electronic localiz. function (ELF)
   LORBIT =      0    0 simple, 1 ext, 2 COOP (PROOUT)


 Dipole corrections
   LMONO  =      F    monopole corrections only (constant potential shift)
   LDIPOL =      F    correct potential (dipole corrections)
   IDIPOL =      0    1-x, 2-y, 3-z, 4-all directions 
   EPSILON=  1.0000000 bulk dielectric constant

 Exchange correlation treatment:
   GGA     =    --    GGA type
   LEXCH   =     8    internal setting for exchange type
   VOSKOWN=      0    Vosko Wilk Nusair interpolation
   LHFCALC =     F    Hartree Fock is set to
   LHFONE  =     F    Hartree Fock one center treatment
   AEXX    =    0.0000 exact exchange contribution

 Linear response parameters
   LEPSILON=     F    determine dielectric tensor
   LRPA    =     F    only Hartree local field effects (RPA)
   LNABLA  =     F    use nabla operator in PAW spheres
   LVEL    =     F    velocity operator in full k-point grid
   LINTERFAST=   F  fast interpolation
   KINTER  =     0    interpolate to denser k-point grid
   CSHIFT  =0.1000    complex shift for real part using Kramers Kronig
   OMEGAMAX=  -1.0    maximum frequency
   DEG_THRESHOLD= 0.2000000E-02 threshold for treating states as degnerate
   RTIME   =    0.100 relaxation time in fs

 Orbital magnetization related:
   ORBITALMAG=     F  switch on orbital magnetization
   LCHIMAG   =     F  perturbation theory with respect to B field
   DQ        =  0.001000  dq finite difference perturbation B field



--------------------------------------------------------------------------------------------------------


 conjugate gradient relaxation of ions
   using selective dynamics as specified on POSCAR
 charge density and potential will be updated during run
 non-spin polarized calculation
 Variant of blocked Davidson
 Davidson routine will perform the subspace rotation
 perform sub-space diagonalisation
    after iterative eigenvector-optimisation
 modified Broyden-mixing scheme, WC =      100.0
 initial mixing is a Kerker type mixing with AMIX =  0.4000 and BMIX =      1.0000
 Hartree-type preconditioning will be used
 using additional bands           14
 reciprocal scheme for non local part
 use partial core corrections
 calculate Harris-corrections to forces 
   (improved forces if not selfconsistent)
 use gradient corrections 
 use of overlap-Matrix (Vanderbilt PP)
 Gauss-broadening in eV      SIGMA  =   0.05


--------------------------------------------------------------------------------------------------------


  energy-cutoff  :      520.00
  volume of cell :      334.01
      direct lattice vectors                 reciprocal lattice vectors
     2.591982046 -1.496481076  0.000000000     0.385805142 -0.000000000 -0.000000000
     0.000000000  2.992962152  0.000000000     0.192902571  0.334117155  0.000000000
     0.000000000 -0.000000000 43.055251419     0.000000000  0.000000000  0.023225971

  length of vectors
     2.992962836  2.992962152 43.055251419     0.385805142  0.385805230  0.023225971


 
 k-points in units of 2pi/SCALE and weight: K-Spacing Value to Generate K-Mesh: 0.02
   0.00000000  0.00000000  0.00000000       0.006
   0.02967732 -0.00000000 -0.00000000       0.036
   0.05935464 -0.00000000 -0.00000000       0.036
   0.08903196 -0.00000000 -0.00000000       0.036
   0.11870927 -0.00000000 -0.00000000       0.036
   0.14838659 -0.00000000 -0.00000000       0.036
   0.17806391 -0.00000000 -0.00000000       0.036
   0.04451598  0.02570132  0.00000000       0.036
   0.07419330  0.02570132  0.00000000       0.071
   0.10387062  0.02570132  0.00000000       0.071
   0.13354793  0.02570132  0.00000000       0.071
   0.16322525  0.02570132  0.00000000       0.071
   0.19290257  0.02570132  0.00000000       0.036
   0.08903196  0.05140264  0.00000000       0.036
   0.11870927  0.05140264  0.00000000       0.071
   0.14838659  0.05140264  0.00000000       0.071
   0.17806391  0.05140264  0.00000000       0.071
   0.13354793  0.07710396  0.00000000       0.036
   0.16322525  0.07710396  0.00000000       0.071
   0.19290257  0.07710396  0.00000000       0.036
   0.17806391  0.10280528  0.00000000       0.036
 
 k-points in reciprocal lattice and weights: K-Spacing Value to Generate K-Mesh: 0.02
   0.00000000  0.00000000  0.00000000       0.006
   0.07692308  0.00000000 -0.00000000       0.036
   0.15384615 -0.00000000 -0.00000000       0.036
   0.23076923 -0.00000000 -0.00000000       0.036
   0.30769231 -0.00000000  0.00000000       0.036
   0.38461538  0.00000000 -0.00000000       0.036
   0.46153846 -0.00000000 -0.00000000       0.036
   0.07692308  0.07692308  0.00000000       0.036
   0.15384615  0.07692308  0.00000000       0.071
   0.23076923  0.07692308  0.00000000       0.071
   0.30769231  0.07692308  0.00000000       0.071
   0.38461538  0.07692308  0.00000000       0.071
   0.46153846  0.07692308  0.00000000       0.036
   0.15384615  0.15384615  0.00000000       0.036
   0.23076923  0.15384615  0.00000000       0.071
   0.30769231  0.15384615  0.00000000       0.071
   0.38461538  0.15384615  0.00000000       0.071
   0.23076923  0.23076923  0.00000000       0.036
   0.30769231  0.23076923  0.00000000       0.071
   0.38461538  0.23076923  0.00000000       0.036
   0.30769231  0.30769231  0.00000000       0.036
 
 position of ions in fractional coordinates (direct lattice) 
   0.00000000  0.00000000  0.34977649
   0.33333300  0.66666700  0.40844108
   0.00000000  0.00000000  0.52581058
   0.33333300  0.66666700  0.58445131
   0.00000000  0.00000000  0.70178476
   0.33333300  0.66666700  0.76047084
   0.66666700  0.33333300  0.29108434
   0.66666700  0.33333300  0.46716074
   0.66666700  0.33333300  0.64314463
   0.00000000  0.00000000  0.26098392
   0.00000000  0.00000000  0.43780296
   0.00000000  0.00000000  0.61379573
   0.00000000  0.00000000  0.79055460
   0.66666700  0.33333300  0.37912944
   0.66666700  0.33333300  0.55512490
   0.66666700  0.33333300  0.73110820
   0.33333300  0.66666700  0.32044331
   0.33333300  0.66666700  0.49649173
   0.33333300  0.66666700  0.67245763
   0.00000000  0.00000000  0.02579462
   0.00000000  0.00000000  0.19223874
   0.66666700  0.33333300  0.13604397
   0.33333300  0.66666700  0.08066045
   0.00000000  0.00000000  0.85930915
   0.66666700  0.33333300  0.97092597
   0.33333300  0.66666700  0.91552491
 
 position of ions in cartesian coordinates  (Angst):
   0.00000000 -0.00000000 15.05971464
   0.86399315  1.49648257 17.58553339
   0.00000000 -0.00000000 22.63890675
   0.86399315  1.49648257 25.16369798
   0.00000000 -0.00000000 30.21551912
   0.86399315  1.49648257 32.74226321
   1.72798889 -0.00000150 12.53270963
   1.72798889 -0.00000150 20.11372328
   1.72798889 -0.00000150 27.69075357
   0.00000000 -0.00000000 11.23672810
   0.00000000 -0.00000000 18.84971663
   0.00000000 -0.00000000 26.42712928
   0.00000000 -0.00000000 34.03752701
   1.72798889 -0.00000150 16.32351356
   1.72798889 -0.00000150 23.90104214
   1.72798889 -0.00000150 31.47804741
   0.86399315  1.49648257 13.79676725
   0.86399315  1.49648257 21.37657642
   0.86399315  1.49648257 28.95283254
   0.00000000 -0.00000000  1.11059402
   0.00000000 -0.00000000  8.27688715
   1.72798889 -0.00000150  5.85740748
   0.86399315  1.49648257  3.47285599
   0.00000000 -0.00000000 36.99777131
   1.72798889 -0.00000150 41.80346160
   0.86399315  1.49648257 39.41815521
 


--------------------------------------------------------------------------------------------------------


 k-point  1 :   0.0000 0.0000 0.0000  plane waves:    9113
 k-point  2 :   0.0769 0.0000-0.0000  plane waves:    9127
 k-point  3 :   0.1538-0.0000-0.0000  plane waves:    9087
 k-point  4 :   0.2308-0.0000-0.0000  plane waves:    9036
 k-point  5 :   0.3077-0.0000 0.0000  plane waves:    8998
 k-point  6 :   0.3846 0.0000-0.0000  plane waves:    8938
 k-point  7 :   0.4615-0.0000-0.0000  plane waves:    8962
 k-point  8 :   0.0769 0.0769 0.0000  plane waves:    9093
 k-point  9 :   0.1538 0.0769 0.0000  plane waves:    9064
 k-point 10 :   0.2308 0.0769 0.0000  plane waves:    9011
 k-point 11 :   0.3077 0.0769 0.0000  plane waves:    8990
 k-point 12 :   0.3846 0.0769 0.0000  plane waves:    8944
 k-point 13 :   0.4615 0.0769 0.0000  plane waves:    8918
 k-point 14 :   0.1538 0.1538 0.0000  plane waves:    9017
 k-point 15 :   0.2308 0.1538 0.0000  plane waves:    8994
 k-point 16 :   0.3077 0.1538 0.0000  plane waves:    8968
 k-point 17 :   0.3846 0.1538 0.0000  plane waves:    8930
 k-point 18 :   0.2308 0.2308 0.0000  plane waves:    8986
 k-point 19 :   0.3077 0.2308 0.0000  plane waves:    8953
 k-point 20 :   0.3846 0.2308 0.0000  plane waves:    8974
 k-point 21 :   0.3077 0.3077 0.0000  plane waves:    8986

 maximum and minimum number of plane-waves per node :      2291     2219

 maximum number of plane-waves:      9127
 maximum index in each direction: 
   IXMAX=    5   IYMAX=    5   IZMAX=   80
   IXMIN=   -6   IYMIN=   -5   IZMIN=  -80

 NGX is ok and might be reduce to  24
 NGY is ok and might be reduce to  22
 WARNING: aliasing errors must be expected set NGZ to 322 to avoid them
 aliasing errors are usually negligible using standard VASP settings
 and one can safely disregard these warnings

 parallel 3D FFT for wavefunctions:
    minimum data exchange during FFTs selected (reduces bandwidth)
 parallel 3D FFT for charge:
    minimum data exchange during FFTs selected (reduces bandwidth)


 total amount of memory used by VASP on root node   147697. kBytes
========================================================================

   base      :      30000. kBytes
   nonl-proj :      15873. kBytes
   fftplans  :      55173. kBytes
   grid      :      22118. kBytes
   one-center:         56. kBytes
   wavefun   :      24477. kBytes
 
     INWAV:  cpu time    0.00: real time    0.00
 Broyden mixing: mesh for mixing (old mesh)
   NGX = 11   NGY = 11   NGZ =161
  (NGX  = 48   NGY  = 48   NGZ  =640)
  gives a total of  19481 points

 initial charge density was supplied:
 charge density of overlapping atoms calculated
 number of electron      95.0000000 magnetization 
 keeping initial charge density in first step


--------------------------------------------------------------------------------------------------------


 Maximum index for augmentation-charges        22594 (set IRDMAX)


--------------------------------------------------------------------------------------------------------


 First call to EWALD:  gamma=   0.255
 Maximum number of real-space cells 7x 7x 1
 Maximum number of reciprocal cells 1x 1x14

 FEWALD executed in parallel
    FEWALD:  cpu time    0.00: real time    0.00


----------------------------------------- Iteration    1(   1)  ---------------------------------------


    POTLOK:  cpu time    0.11: real time    0.11
    SETDIJ:  cpu time    0.12: real time    0.12
     EDDAV:  cpu time    4.17: real time    4.21
       DOS:  cpu time    0.00: real time    0.00
    --------------------------------------------
      LOOP:  cpu time    4.40: real time    4.44

 eigenvalue-minimisations  :  2620
 total energy-change (2. order) : 0.4742804E+03  (-0.4124100E+04)
 number of electron      95.0000000 magnetization 
 augmentation part       95.0000000 magnetization 

 Free energy of the ion-electron system (eV)
  ---------------------------------------------------
  alpha Z        PSCENC =       121.05684788
  Ewald energy   TEWEN  =     15070.26868676
  -Hartree energ DENC   =    -19809.60437455
  -exchange      EXHF   =         0.00000000
  -V(xc)+E(xc)   XCENC  =      -419.69005976
  PAW double counting   =      4235.41334458    -3509.29226066
  entropy T*S    EENTRO =        -0.00489712
  eigenvalues    EBANDS =       289.77341809
  atomic energy  EATOM  =      4496.35971583
  ---------------------------------------------------
  free energy    TOTEN  =       474.28042104 eV

  energy without entropy =      474.28531815  energy(sigma->0) =      474.28286960


--------------------------------------------------------------------------------------------------------




----------------------------------------- Iteration    1(   2)  ---------------------------------------


     EDDAV:  cpu time    4.95: real time    4.96
       DOS:  cpu time    0.00: real time    0.00
    --------------------------------------------
      LOOP:  cpu time    4.95: real time    4.96

 eigenvalue-minimisations  :  3416
 total energy-change (2. order) :-0.5655342E+03  (-0.5362459E+03)
 number of electron      95.0000000 magnetization 
 augmentation part       95.0000000 magnetization 

 Free energy of the ion-electron system (eV)
  ---------------------------------------------------
  alpha Z        PSCENC =       121.05684788
  Ewald energy   TEWEN  =     15070.26868676
  -Hartree energ DENC   =    -19809.60437455
  -exchange      EXHF   =         0.00000000
  -V(xc)+E(xc)   XCENC  =      -419.69005976
  PAW double counting   =      4235.41334458    -3509.29226066
  entropy T*S    EENTRO =        -0.00769254
  eigenvalues    EBANDS =      -275.75796299
  atomic energy  EATOM  =      4496.35971583
  ---------------------------------------------------
  free energy    TOTEN  =       -91.25375547 eV

  energy without entropy =      -91.24606292  energy(sigma->0) =      -91.24990920


--------------------------------------------------------------------------------------------------------




----------------------------------------- Iteration    1(   3)  ---------------------------------------


     EDDAV:  cpu time    4.53: real time    4.54
       DOS:  cpu time    0.00: real time    0.00
    --------------------------------------------
      LOOP:  cpu time    4.53: real time    4.54

 eigenvalue-minimisations  :  3042
 total energy-change (2. order) :-0.5595132E+02  (-0.5561983E+02)
 number of electron      95.0000000 magnetization 
 augmentation part       95.0000000 magnetization 

 Free energy of the ion-electron system (eV)
  ---------------------------------------------------
  alpha Z        PSCENC =       121.05684788
  Ewald energy   TEWEN  =     15070.26868676
  -Hartree energ DENC   =    -19809.60437455
  -exchange      EXHF   =         0.00000000
  -V(xc)+E(xc)   XCENC  =      -419.69005976
  PAW double counting   =      4235.41334458    -3509.29226066
  entropy T*S    EENTRO =        -0.00801917
  eigenvalues    EBANDS =      -331.70896122
  atomic energy  EATOM  =      4496.35971583
  ---------------------------------------------------
  free energy    TOTEN  =      -147.20508033 eV

  energy without entropy =     -147.19706116  energy(sigma->0) =     -147.20107074


--------------------------------------------------------------------------------------------------------




----------------------------------------- Iteration    1(   4)  ---------------------------------------


     EDDAV:  cpu time    4.54: real time    4.55
       DOS:  cpu time    0.00: real time    0.00
    --------------------------------------------
      LOOP:  cpu time    4.54: real time    4.55

 eigenvalue-minimisations  :  3064
 total energy-change (2. order) :-0.7510050E+00  (-0.7496232E+00)
 number of electron      95.0000000 magnetization 
 augmentation part       95.0000000 magnetization 

 Free energy of the ion-electron system (eV)
  ---------------------------------------------------
  alpha Z        PSCENC =       121.05684788
  Ewald energy   TEWEN  =     15070.26868676
  -Hartree energ DENC   =    -19809.60437455
  -exchange      EXHF   =         0.00000000
  -V(xc)+E(xc)   XCENC  =      -419.69005976
  PAW double counting   =      4235.41334458    -3509.29226066
  entropy T*S    EENTRO =        -0.00748262
  eigenvalues    EBANDS =      -332.46050281
  atomic energy  EATOM  =      4496.35971583
  ---------------------------------------------------
  free energy    TOTEN  =      -147.95608537 eV

  energy without entropy =     -147.94860275  energy(sigma->0) =     -147.95234406


--------------------------------------------------------------------------------------------------------




----------------------------------------- Iteration    1(   5)  ---------------------------------------


     EDDAV:  cpu time    4.54: real time    4.55
       DOS:  cpu time    0.00: real time    0.00
    CHARGE:  cpu time    0.37: real time    0.37
    MIXING:  cpu time    0.00: real time    0.00
    --------------------------------------------
      LOOP:  cpu time    4.92: real time    4.92

 eigenvalue-minimisations  :  3062
 total energy-change (2. order) :-0.1204439E-01  (-0.1204010E-01)
 number of electron      95.0000001 magnetization 
 augmentation part        6.9150419 magnetization 

 Broyden mixing:
  rms(total) = 0.21941E+01    rms(broyden)= 0.21936E+01
  rms(prec ) = 0.22549E+01
  weight for this iteration     100.00

 Free energy of the ion-electron system (eV)
  ---------------------------------------------------
  alpha Z        PSCENC =       121.05684788
  Ewald energy   TEWEN  =     15070.26868676
  -Hartree energ DENC   =    -19809.60437455
  -exchange      EXHF   =         0.00000000
  -V(xc)+E(xc)   XCENC  =      -419.69005976
  PAW double counting   =      4235.41334458    -3509.29226066
  entropy T*S    EENTRO =        -0.00748384
  eigenvalues    EBANDS =      -332.47254598
  atomic energy  EATOM  =      4496.35971583
  ---------------------------------------------------
  free energy    TOTEN  =      -147.96812976 eV

  energy without entropy =     -147.96064591  energy(sigma->0) =     -147.96438783


--------------------------------------------------------------------------------------------------------




----------------------------------------- Iteration    1(   6)  ---------------------------------------


    POTLOK:  cpu time    0.10: real time    0.10
    SETDIJ:  cpu time    0.10: real time    0.10
     EDDAV:  cpu time    4.41: real time    4.41
       DOS:  cpu time    0.00: real time    0.00
    CHARGE:  cpu time    0.36: real time    0.36
    MIXING:  cpu time    0.00: real time    0.00
    --------------------------------------------
      LOOP:  cpu time    4.97: real time    4.98

 eigenvalue-minimisations  :  2932
 total energy-change (2. order) : 0.1471623E+02  (-0.8400300E+01)
 number of electron      95.0000001 magnetization 
 augmentation part        5.5768470 magnetization 

 Broyden mixing:
  rms(total) = 0.74873E+00    rms(broyden)= 0.74786E+00
  rms(prec ) = 0.75593E+00
  weight for this iteration     100.00

 eigenvalues of (default mixing * dielectric matrix)
  average eigenvalue GAMMA=   0.8361
  0.8361

 Free energy of the ion-electron system (eV)
  ---------------------------------------------------
  alpha Z        PSCENC =       121.05684788
  Ewald energy   TEWEN  =     15070.26868676
  -Hartree energ DENC   =    -19982.25553851
  -exchange      EXHF   =         0.00000000
  -V(xc)+E(xc)   XCENC  =      -407.51164260
  PAW double counting   =      5013.20354542    -4290.19533544
  entropy T*S    EENTRO =        -0.00456927
  eigenvalues    EBANDS =      -154.17361022
  atomic energy  EATOM  =      4496.35971583
  ---------------------------------------------------
  free energy    TOTEN  =      -133.25190015 eV

  energy without entropy =     -133.24733088  energy(sigma->0) =     -133.24961552


--------------------------------------------------------------------------------------------------------




----------------------------------------- Iteration    1(   7)  ---------------------------------------


    POTLOK:  cpu time    0.10: real time    0.10
    SETDIJ:  cpu time    0.10: real time    0.10
     EDDAV:  cpu time    4.36: real time    4.37
       DOS:  cpu time    0.00: real time    0.00
    CHARGE:  cpu time    0.36: real time    0.36
    MIXING:  cpu time    0.00: real time    0.00
    --------------------------------------------
      LOOP:  cpu time    4.92: real time    4.93

 eigenvalue-minimisations  :  2902
 total energy-change (2. order) : 0.1665706E+00  (-0.1458001E+00)
 number of electron      95.0000001 magnetization 
 augmentation part        5.6272906 magnetization 

 Broyden mixing:
  rms(total) = 0.45063E+00    rms(broyden)= 0.45062E+00
  rms(prec ) = 0.45561E+00
  weight for this iteration     100.00

 eigenvalues of (default mixing * dielectric matrix)
  average eigenvalue GAMMA=   1.6464
  0.9648  2.3281

 Free energy of the ion-electron system (eV)
  ---------------------------------------------------
  alpha Z        PSCENC =       121.05684788
  Ewald energy   TEWEN  =     15070.26868676
  -Hartree energ DENC   =    -19978.99992657
  -exchange      EXHF   =         0.00000000
  -V(xc)+E(xc)   XCENC  =      -407.22573055
  PAW double counting   =      5276.86739487    -4553.41465362
  entropy T*S    EENTRO =        -0.00391954
  eigenvalues    EBANDS =      -157.99374458
  atomic energy  EATOM  =      4496.35971583
  ---------------------------------------------------
  free energy    TOTEN  =      -133.08532952 eV

  energy without entropy =     -133.08140998  energy(sigma->0) =     -133.08336975


--------------------------------------------------------------------------------------------------------




----------------------------------------- Iteration    1(   8)  ---------------------------------------


    POTLOK:  cpu time    0.10: real time    0.10
    SETDIJ:  cpu time    0.10: real time    0.10
     EDDAV:  cpu time    4.43: real time    4.43
       DOS:  cpu time    0.00: real time    0.00
    CHARGE:  cpu time    0.42: real time    0.42
    MIXING:  cpu time    0.00: real time    0.00
    --------------------------------------------
      LOOP:  cpu time    5.06: real time    5.06

 eigenvalue-minimisations  :  3006
 total energy-change (2. order) : 0.9844379E-01  (-0.4551256E-01)
 number of electron      95.0000001 magnetization 
 augmentation part        5.6673989 magnetization 

 Broyden mixing:
  rms(total) = 0.74322E-01    rms(broyden)= 0.74284E-01
  rms(prec ) = 0.87203E-01
  weight for this iteration     100.00

 eigenvalues of (default mixing * dielectric matrix)
  average eigenvalue GAMMA=   1.3909
  2.4336  0.8696  0.8696

 Free energy of the ion-electron system (eV)
  ---------------------------------------------------
  alpha Z        PSCENC =       121.05684788
  Ewald energy   TEWEN  =     15070.26868676
  -Hartree energ DENC   =    -19984.78845860
  -exchange      EXHF   =         0.00000000
  -V(xc)+E(xc)   XCENC  =      -405.75627868
  PAW double counting   =      5750.40725475    -5026.64340179
  entropy T*S    EENTRO =        -0.00648346
  eigenvalues    EBANDS =      -153.88476841
  atomic energy  EATOM  =      4496.35971583
  ---------------------------------------------------
  free energy    TOTEN  =      -132.98688573 eV

  energy without entropy =     -132.98040227  energy(sigma->0) =     -132.98364400


--------------------------------------------------------------------------------------------------------




----------------------------------------- Iteration    1(   9)  ---------------------------------------


    POTLOK:  cpu time    0.10: real time    0.10
    SETDIJ:  cpu time    0.10: real time    0.10
     EDDAV:  cpu time    4.12: real time    4.12
       DOS:  cpu time    0.00: real time    0.00
    CHARGE:  cpu time    0.35: real time    0.35
    MIXING:  cpu time    0.00: real time    0.00
    --------------------------------------------
      LOOP:  cpu time    4.67: real time    4.68

 eigenvalue-minimisations  :  2930
 total energy-change (2. order) : 0.1666871E-01  (-0.6894049E-02)
 number of electron      95.0000001 magnetization 
 augmentation part        5.6498977 magnetization 

 Broyden mixing:
  rms(total) = 0.43153E-01    rms(broyden)= 0.43152E-01
  rms(prec ) = 0.44068E-01
  weight for this iteration     100.00

 eigenvalues of (default mixing * dielectric matrix)
  average eigenvalue GAMMA=   1.4811
  2.4953  0.9046  0.9046  1.6202

 Free energy of the ion-electron system (eV)
  ---------------------------------------------------
  alpha Z        PSCENC =       121.05684788
  Ewald energy   TEWEN  =     15070.26868676
  -Hartree energ DENC   =    -19987.96086176
  -exchange      EXHF   =         0.00000000
  -V(xc)+E(xc)   XCENC  =      -405.43827130
  PAW double counting   =      5768.46118732    -5044.73396928
  entropy T*S    EENTRO =        -0.00541236
  eigenvalues    EBANDS =      -150.97814009
  atomic energy  EATOM  =      4496.35971583
  ---------------------------------------------------
  free energy    TOTEN  =      -132.97021702 eV

  energy without entropy =     -132.96480465  energy(sigma->0) =     -132.96751083


--------------------------------------------------------------------------------------------------------




----------------------------------------- Iteration    1(  10)  ---------------------------------------


    POTLOK:  cpu time    0.10: real time    0.10
    SETDIJ:  cpu time    0.10: real time    0.10
     EDDAV:  cpu time    4.12: real time    4.13
       DOS:  cpu time    0.00: real time    0.00
    CHARGE:  cpu time    0.35: real time    0.35
    MIXING:  cpu time    0.01: real time    0.01
    --------------------------------------------
      LOOP:  cpu time    4.68: real time    4.69

 eigenvalue-minimisations  :  2930
 total energy-change (2. order) :-0.9545124E-03  (-0.4060225E-02)
 number of electron      95.0000001 magnetization 
 augmentation part        5.6315047 magnetization 

 Broyden mixing:
  rms(total) = 0.27386E-01    rms(broyden)= 0.27368E-01
  rms(prec ) = 0.27983E-01
  weight for this iteration     100.00

 eigenvalues of (default mixing * dielectric matrix)
  average eigenvalue GAMMA=   1.2842
  2.5017  1.6796  0.8976  0.8976  0.4444

 Free energy of the ion-electron system (eV)
  ---------------------------------------------------
  alpha Z        PSCENC =       121.05684788
  Ewald energy   TEWEN  =     15070.26868676
  -Hartree energ DENC   =    -19989.74643018
  -exchange      EXHF   =         0.00000000
  -V(xc)+E(xc)   XCENC  =      -405.24074803
  PAW double counting   =      5751.13644777    -5027.44373329
  entropy T*S    EENTRO =        -0.00507450
  eigenvalues    EBANDS =      -149.35688378
  atomic energy  EATOM  =      4496.35971583
  ---------------------------------------------------
  free energy    TOTEN  =      -132.97117153 eV

  energy without entropy =     -132.96609703  energy(sigma->0) =     -132.96863428


--------------------------------------------------------------------------------------------------------




----------------------------------------- Iteration    1(  11)  ---------------------------------------


    POTLOK:  cpu time    0.10: real time    0.10
    SETDIJ:  cpu time    0.10: real time    0.10
     EDDAV:  cpu time    4.21: real time    4.22
       DOS:  cpu time    0.00: real time    0.00
    CHARGE:  cpu time    0.35: real time    0.35
    MIXING:  cpu time    0.00: real time    0.00
    --------------------------------------------
      LOOP:  cpu time    4.77: real time    4.78

 eigenvalue-minimisations  :  3020
 total energy-change (2. order) : 0.4908452E-03  (-0.3848077E-03)
 number of electron      95.0000001 magnetization 
 augmentation part        5.6370608 magnetization 

 Broyden mixing:
  rms(total) = 0.16260E-01    rms(broyden)= 0.16259E-01
  rms(prec ) = 0.16694E-01
  weight for this iteration     100.00

 eigenvalues of (default mixing * dielectric matrix)
  average eigenvalue GAMMA=   1.4569
  2.7900  2.3147  1.0149  0.9684  0.9684  0.6852

 Free energy of the ion-electron system (eV)
  ---------------------------------------------------
  alpha Z        PSCENC =       121.05684788
  Ewald energy   TEWEN  =     15070.26868676
  -Hartree energ DENC   =    -19989.10616922
  -exchange      EXHF   =         0.00000000
  -V(xc)+E(xc)   XCENC  =      -405.25574457
  PAW double counting   =      5736.91873230    -5013.22024981
  entropy T*S    EENTRO =        -0.00510560
  eigenvalues    EBANDS =      -149.98739425
  atomic energy  EATOM  =      4496.35971583
  ---------------------------------------------------
  free energy    TOTEN  =      -132.97068068 eV

  energy without entropy =     -132.96557508  energy(sigma->0) =     -132.96812788


--------------------------------------------------------------------------------------------------------




----------------------------------------- Iteration    1(  12)  ---------------------------------------


    POTLOK:  cpu time    0.10: real time    0.10
    SETDIJ:  cpu time    0.10: real time    0.10
     EDDAV:  cpu time    4.39: real time    4.40
       DOS:  cpu time    0.00: real time    0.00
    CHARGE:  cpu time    0.35: real time    0.35
    MIXING:  cpu time    0.00: real time    0.00
    --------------------------------------------
      LOOP:  cpu time    4.95: real time    4.96

 eigenvalue-minimisations  :  3208
 total energy-change (2. order) :-0.2138334E-03  (-0.4226730E-03)
 number of electron      95.0000001 magnetization 
 augmentation part        5.6372002 magnetization 

 Broyden mixing:
  rms(total) = 0.78954E-02    rms(broyden)= 0.78889E-02
  rms(prec ) = 0.84685E-02
  weight for this iteration     100.00

 eigenvalues of (default mixing * dielectric matrix)
  average eigenvalue GAMMA=   1.3861
  2.9315  2.4840  0.8969  0.8969  0.9219  0.9219  0.6498

 Free energy of the ion-electron system (eV)
  ---------------------------------------------------
  alpha Z        PSCENC =       121.05684788
  Ewald energy   TEWEN  =     15070.26868676
  -Hartree energ DENC   =    -19988.93787679
  -exchange      EXHF   =         0.00000000
  -V(xc)+E(xc)   XCENC  =      -405.21107122
  PAW double counting   =      5710.16781798    -4986.48449286
  entropy T*S    EENTRO =        -0.00516220
  eigenvalues    EBANDS =      -150.18535988
  atomic energy  EATOM  =      4496.35971583
  ---------------------------------------------------
  free energy    TOTEN  =      -132.97089452 eV

  energy without entropy =     -132.96573231  energy(sigma->0) =     -132.96831342


--------------------------------------------------------------------------------------------------------




----------------------------------------- Iteration    1(  13)  ---------------------------------------


    POTLOK:  cpu time    0.10: real time    0.10
    SETDIJ:  cpu time    0.11: real time    0.11
     EDDAV:  cpu time    4.22: real time    4.22
       DOS:  cpu time    0.00: real time    0.00
    CHARGE:  cpu time    0.35: real time    0.35
    MIXING:  cpu time    0.01: real time    0.01
    --------------------------------------------
      LOOP:  cpu time    4.78: real time    4.79

 eigenvalue-minimisations  :  3036
 total energy-change (2. order) : 0.8016467E-04  (-0.8065229E-04)
 number of electron      95.0000001 magnetization 
 augmentation part        5.6387258 magnetization 

 Broyden mixing:
  rms(total) = 0.61471E-02    rms(broyden)= 0.61466E-02
  rms(prec ) = 0.65488E-02
  weight for this iteration     100.00

 eigenvalues of (default mixing * dielectric matrix)
  average eigenvalue GAMMA=   1.3533
  2.9213  2.5714  0.9493  0.9493  1.0420  1.0420  0.6755  0.6755

 Free energy of the ion-electron system (eV)
  ---------------------------------------------------
  alpha Z        PSCENC =       121.05684788
  Ewald energy   TEWEN  =     15070.26868676
  -Hartree energ DENC   =    -19988.64739180
  -exchange      EXHF   =         0.00000000
  -V(xc)+E(xc)   XCENC  =      -405.22233757
  PAW double counting   =      5704.70371542    -4981.01846538
  entropy T*S    EENTRO =        -0.00517765
  eigenvalues    EBANDS =      -150.46640784
  atomic energy  EATOM  =      4496.35971583
  ---------------------------------------------------
  free energy    TOTEN  =      -132.97081435 eV

  energy without entropy =     -132.96563670  energy(sigma->0) =     -132.96822553


--------------------------------------------------------------------------------------------------------




----------------------------------------- Iteration    1(  14)  ---------------------------------------


    POTLOK:  cpu time    0.10: real time    0.10
    SETDIJ:  cpu time    0.10: real time    0.10
     EDDAV:  cpu time    4.24: real time    4.24
       DOS:  cpu time    0.00: real time    0.00
    CHARGE:  cpu time    0.35: real time    0.35
    MIXING:  cpu time    0.01: real time    0.01
    --------------------------------------------
      LOOP:  cpu time    4.79: real time    4.80

 eigenvalue-minimisations  :  3042
 total energy-change (2. order) : 0.6567935E-04  (-0.3912158E-04)
 number of electron      95.0000001 magnetization 
 augmentation part        5.6392772 magnetization 

 Broyden mixing:
  rms(total) = 0.24627E-02    rms(broyden)= 0.24610E-02
  rms(prec ) = 0.30592E-02
  weight for this iteration     100.00

 eigenvalues of (default mixing * dielectric matrix)
  average eigenvalue GAMMA=   1.3214
  2.8992  2.5066  1.2545  0.9936  0.9349  0.9349  0.8567  0.8567  0.6555

 Free energy of the ion-electron system (eV)
  ---------------------------------------------------
  alpha Z        PSCENC =       121.05684788
  Ewald energy   TEWEN  =     15070.26868676
  -Hartree energ DENC   =    -19988.48176493
  -exchange      EXHF   =         0.00000000
  -V(xc)+E(xc)   XCENC  =      -405.22898477
  PAW double counting   =      5703.36584121    -4979.67872419
  entropy T*S    EENTRO =        -0.00519045
  eigenvalues    EBANDS =      -150.62717601
  atomic energy  EATOM  =      4496.35971583
  ---------------------------------------------------
  free energy    TOTEN  =      -132.97074867 eV

  energy without entropy =     -132.96555822  energy(sigma->0) =     -132.96815345


--------------------------------------------------------------------------------------------------------




----------------------------------------- Iteration    1(  15)  ---------------------------------------


    POTLOK:  cpu time    0.10: real time    0.10
    SETDIJ:  cpu time    0.10: real time    0.10
     EDDAV:  cpu time    4.11: real time    4.11
       DOS:  cpu time    0.00: real time    0.00
    CHARGE:  cpu time    0.35: real time    0.35
    MIXING:  cpu time    0.01: real time    0.01
    --------------------------------------------
      LOOP:  cpu time    4.67: real time    4.67

 eigenvalue-minimisations  :  2914
 total energy-change (2. order) : 0.2234027E-04  (-0.7920204E-05)
 number of electron      95.0000001 magnetization 
 augmentation part        5.6387638 magnetization 

 Broyden mixing:
  rms(total) = 0.10364E-02    rms(broyden)= 0.10359E-02
  rms(prec ) = 0.18488E-02
  weight for this iteration     100.00

 eigenvalues of (default mixing * dielectric matrix)
  average eigenvalue GAMMA=   1.3255
  2.9173  2.4049  1.9972  0.8937  0.8937  1.1158  0.9373  0.8602  0.6309  0.6042

 Free energy of the ion-electron system (eV)
  ---------------------------------------------------
  alpha Z        PSCENC =       121.05684788
  Ewald energy   TEWEN  =     15070.26868676
  -Hartree energ DENC   =    -19988.46180840
  -exchange      EXHF   =         0.00000000
  -V(xc)+E(xc)   XCENC  =      -405.22560745
  PAW double counting   =      5703.90974089    -4980.22269878
  entropy T*S    EENTRO =        -0.00519617
  eigenvalues    EBANDS =      -150.65040687
  atomic energy  EATOM  =      4496.35971583
  ---------------------------------------------------
  free energy    TOTEN  =      -132.97072633 eV

  energy without entropy =     -132.96553016  energy(sigma->0) =     -132.96812825


--------------------------------------------------------------------------------------------------------




----------------------------------------- Iteration    1(  16)  ---------------------------------------


    POTLOK:  cpu time    0.10: real time    0.10
    SETDIJ:  cpu time    0.10: real time    0.10
     EDDAV:  cpu time    3.21: real time    3.21
       DOS:  cpu time    0.00: real time    0.00
    CHARGE:  cpu time    0.35: real time    0.35
    MIXING:  cpu time    0.01: real time    0.01
    --------------------------------------------
      LOOP:  cpu time    3.76: real time    3.77

 eigenvalue-minimisations  :  2022
 total energy-change (2. order) : 0.2348615E-04  (-0.1658466E-05)
 number of electron      95.0000001 magnetization 
 augmentation part        5.6385213 magnetization 

 Broyden mixing:
  rms(total) = 0.47753E-03    rms(broyden)= 0.47726E-03
  rms(prec ) = 0.13592E-02
  weight for this iteration     100.00

 eigenvalues of (default mixing * dielectric matrix)
  average eigenvalue GAMMA=   1.3872
  3.0491  2.7032  2.4909  0.9276  0.9276  1.1850  1.0152  0.8760  0.8760  0.6764
  0.5327

 Free energy of the ion-electron system (eV)
  ---------------------------------------------------
  alpha Z        PSCENC =       121.05684788
  Ewald energy   TEWEN  =     15070.26868676
  -Hartree energ DENC   =    -19988.40042749
  -exchange      EXHF   =         0.00000000
  -V(xc)+E(xc)   XCENC  =      -405.22180991
  PAW double counting   =      5704.63499252    -4980.94802200
  entropy T*S    EENTRO =        -0.00520029
  eigenvalues    EBANDS =      -150.71548615
  atomic energy  EATOM  =      4496.35971583
  ---------------------------------------------------
  free energy    TOTEN  =      -132.97070285 eV

  energy without entropy =     -132.96550256  energy(sigma->0) =     -132.96810270


--------------------------------------------------------------------------------------------------------




----------------------------------------- Iteration    1(  17)  ---------------------------------------


    POTLOK:  cpu time    0.10: real time    0.10
    SETDIJ:  cpu time    0.10: real time    0.10
     EDDAV:  cpu time    3.43: real time    3.44
       DOS:  cpu time    0.00: real time    0.00
    CHARGE:  cpu time    0.35: real time    0.35
    MIXING:  cpu time    0.01: real time    0.01
    --------------------------------------------
      LOOP:  cpu time    3.99: real time    4.00

 eigenvalue-minimisations  :  2244
 total energy-change (2. order) : 0.2320630E-04  (-0.1748828E-05)
 number of electron      95.0000001 magnetization 
 augmentation part        5.6384522 magnetization 

 Broyden mixing:
  rms(total) = 0.43676E-03    rms(broyden)= 0.43661E-03
  rms(prec ) = 0.11065E-02
  weight for this iteration     100.00

 eigenvalues of (default mixing * dielectric matrix)
  average eigenvalue GAMMA=   1.4654
  3.6094  2.9588  2.4304  1.8030  0.9218  0.9218  1.0366  1.0366  0.8315  0.8315
  0.6872  0.5162

 Free energy of the ion-electron system (eV)
  ---------------------------------------------------
  alpha Z        PSCENC =       121.05684788
  Ewald energy   TEWEN  =     15070.26868676
  -Hartree energ DENC   =    -19988.22786849
  -exchange      EXHF   =         0.00000000
  -V(xc)+E(xc)   XCENC  =      -405.22177764
  PAW double counting   =      5704.24176326    -4980.55466505
  entropy T*S    EENTRO =        -0.00520850
  eigenvalues    EBANDS =      -150.88817370
  atomic energy  EATOM  =      4496.35971583
  ---------------------------------------------------
  free energy    TOTEN  =      -132.97067964 eV

  energy without entropy =     -132.96547114  energy(sigma->0) =     -132.96807539


--------------------------------------------------------------------------------------------------------




----------------------------------------- Iteration    1(  18)  ---------------------------------------


    POTLOK:  cpu time    0.10: real time    0.10
    SETDIJ:  cpu time    0.11: real time    0.11
     EDDAV:  cpu time    3.58: real time    3.59
       DOS:  cpu time    0.00: real time    0.00
    CHARGE:  cpu time    0.36: real time    0.36
    MIXING:  cpu time    0.01: real time    0.01
    --------------------------------------------
      LOOP:  cpu time    4.15: real time    4.16

 eigenvalue-minimisations  :  2382
 total energy-change (2. order) : 0.1798234E-04  (-0.2110187E-05)
 number of electron      95.0000001 magnetization 
 augmentation part        5.6385947 magnetization 

 Broyden mixing:
  rms(total) = 0.61135E-03    rms(broyden)= 0.61121E-03
  rms(prec ) = 0.92897E-03
  weight for this iteration     100.00

 eigenvalues of (default mixing * dielectric matrix)
  average eigenvalue GAMMA=   1.4944
  4.3692  2.9358  2.4054  1.8495  0.9215  0.9215  1.0695  1.0695  0.9623  0.9623
  0.7614  0.6842  0.5152

 Free energy of the ion-electron system (eV)
  ---------------------------------------------------
  alpha Z        PSCENC =       121.05684788
  Ewald energy   TEWEN  =     15070.26868676
  -Hartree energ DENC   =    -19987.99095703
  -exchange      EXHF   =         0.00000000
  -V(xc)+E(xc)   XCENC  =      -405.22348799
  PAW double counting   =      5704.25454752    -4980.56672255
  entropy T*S    EENTRO =        -0.00521855
  eigenvalues    EBANDS =      -151.12407352
  atomic energy  EATOM  =      4496.35971583
  ---------------------------------------------------
  free energy    TOTEN  =      -132.97066166 eV

  energy without entropy =     -132.96544311  energy(sigma->0) =     -132.96805238


--------------------------------------------------------------------------------------------------------




----------------------------------------- Iteration    1(  19)  ---------------------------------------


    POTLOK:  cpu time    0.10: real time    0.10
    SETDIJ:  cpu time    0.10: real time    0.10
     EDDAV:  cpu time    3.46: real time    3.46
       DOS:  cpu time    0.00: real time    0.00
    --------------------------------------------
      LOOP:  cpu time    3.66: real time    3.66

 eigenvalue-minimisations  :  2266
 total energy-change (2. order) : 0.9651529E-05  (-0.1940047E-05)
 number of electron      95.0000001 magnetization 
 augmentation part        5.6385947 magnetization 

 Free energy of the ion-electron system (eV)
  ---------------------------------------------------
  alpha Z        PSCENC =       121.05684788
  Ewald energy   TEWEN  =     15070.26868676
  -Hartree energ DENC   =    -19987.83437331
  -exchange      EXHF   =         0.00000000
  -V(xc)+E(xc)   XCENC  =      -405.22368086
  PAW double counting   =      5704.26224416    -4980.57419513
  entropy T*S    EENTRO =        -0.00522414
  eigenvalues    EBANDS =      -151.28067318
  atomic energy  EATOM  =      4496.35971583
  ---------------------------------------------------
  free energy    TOTEN  =      -132.97065201 eV

  energy without entropy =     -132.96542787  energy(sigma->0) =     -132.96803994


--------------------------------------------------------------------------------------------------------




 average (electrostatic) potential at core
  the test charge radii are     0.7215  1.0714  1.0406
  (the norm of the test charge is              1.0000)
       1 -70.2242       2 -70.2102       3 -70.1957       4 -70.1974       5 -70.2327
       6 -70.3555       7 -70.3508       8 -70.1974       9 -70.2101      10 -36.0603
      11 -35.8465      12 -35.8441      13 -36.0617      14 -35.8526      15 -35.8318
      16 -35.8991      17 -35.8924      18 -35.8325      19 -35.8550      20 -74.4988
      21 -74.4732      22 -74.4902      23 -74.4082      24 -74.4736      25 -74.4084
      26 -74.4909
 
 
 
 E-fermi :   6.3112     XC(G=0): -10.2021     alpha+bet :-12.2811


 k-point     1 :       0.0000    0.0000    0.0000
  band No.  band energies     occupation 
      1     -14.4639      2.00000
      2     -14.4151      2.00000
      3     -14.3127      2.00000
      4     -14.1738      2.00000
      5     -14.0125      2.00000
      6     -13.8375      2.00000
      7     -13.6703      2.00000
      8     -13.5277      2.00000
      9     -13.4208      2.00000
     10      -3.9486      2.00000
     11      -3.5622      2.00000
     12      -3.0263      2.00000
     13      -2.2882      2.00000
     14      -1.9305      2.00000
     15      -1.8055      2.00000
     16      -1.4579      2.00000
     17      -1.3882      2.00000
     18      -0.9319      2.00000
     19      -0.5855      2.00000
     20      -0.0766      2.00000
     21       0.1466      2.00000
     22       0.8995      2.00000
     23       1.0790      2.00000
     24       1.6730      2.00000
     25       2.0669      2.00000
     26       2.0865      2.00000
     27       2.0865      2.00000
     28       2.1057      2.00000
     29       2.1057      2.00000
     30       2.1607      2.00000
     31       2.1607      2.00000
     32       2.2324      2.00000
     33       2.2324      2.00000
     34       2.3137      2.00000
     35       2.3137      2.00000
     36       2.4028      2.00000
     37       2.4028      2.00000
     38       2.4408      2.00000
     39       2.4853      2.00000
     40       2.4853      2.00000
     41       2.5571      2.00000
     42       2.5571      2.00000
     43       2.6144      2.00000
     44       2.6144      2.00000
     45       3.5181      2.00000
     46       4.5781      2.00000
     47       5.7944      2.00000
     48       6.9916      0.00000
     49       7.0274      0.00000
     50       7.7790      0.00000
     51       8.0173      0.00000
     52       8.8789      0.00000
     53       8.9349      0.00000
     54       9.7635      0.00000
     55       9.7646      0.00000
     56      10.2049      0.00000
     57      10.3028      0.00000
     58      10.5735      0.00000
     59      11.8015      0.00000
     60      13.3829      0.00000
     61      14.1770      0.00000
     62      14.2200      0.00000

 k-point     2 :       0.0769    0.0000   -0.0000
  band No.  band energies     occupation 
      1     -14.4114      2.00000
      2     -14.3640      2.00000
      3     -14.2642      2.00000
      4     -14.1286      2.00000
      5     -13.9714      2.00000
      6     -13.8010      2.00000
      7     -13.6384      2.00000
      8     -13.4998      2.00000
      9     -13.3959      2.00000
     10      -3.8184      2.00000
     11      -3.4323      2.00000
     12      -2.8969      2.00000
     13      -2.1612      2.00000
     14      -1.8486      2.00000
     15      -1.7240      2.00000
     16      -1.3903      2.00000
     17      -1.2803      2.00000
     18      -0.8724      2.00000
     19      -0.5353      2.00000
     20       0.0079      2.00000
     21       0.1461      2.00000
     22       0.8508      2.00000
     23       1.1278      2.00000
     24       1.5999      2.00000
     25       1.8524      2.00000
     26       1.8769      2.00000
     27       1.8998      2.00000
     28       1.9591      2.00000
     29       2.0340      2.00000
     30       2.0426      2.00000
     31       2.0621      2.00000
     32       2.1174      2.00000
     33       2.1302      2.00000
     34       2.1898      2.00000
     35       2.2042      2.00000
     36       2.2718      2.00000
     37       2.2720      2.00000
     38       2.3476      2.00000
     39       2.3617      2.00000
     40       2.3908      2.00000
     41       2.4449      2.00000
     42       2.5174      2.00000
     43       2.5279      2.00000
     44       2.5751      2.00000
     45       3.6490      2.00000
     46       4.7192      2.00000
     47       5.9572      2.00000
     48       7.2096      0.00000
     49       7.3506      0.00000
     50       8.0006      0.00000
     51       8.2484      0.00000
     52       9.0698      0.00000
     53       9.1414      0.00000
     54       9.9792      0.00000
     55       9.9885      0.00000
     56      10.4702      0.00000
     57      10.5734      0.00000
     58      10.7775      0.00000
     59      11.8886      0.00000
     60      13.3569      0.00000
     61      13.8034      0.00000
     62      14.1066      0.00000

 k-point     3 :       0.1538   -0.0000   -0.0000
  band No.  band energies     occupation 
      1     -14.2606      2.00000
      2     -14.2180      2.00000
      3     -14.1254      2.00000
      4     -14.0001      2.00000
      5     -13.8553      2.00000
      6     -13.6984      2.00000
      7     -13.5493      2.00000
      8     -13.4223      2.00000
      9     -13.3266      2.00000
     10      -3.4284      2.00000
     11      -3.0431      2.00000
     12      -2.5094      2.00000
     13      -1.7855      2.00000
     14      -1.6091      2.00000
     15      -1.4955      2.00000
     16      -1.2040      2.00000
     17      -0.9963      2.00000
     18      -0.6802      2.00000
     19      -0.4512      2.00000
     20       0.0810      2.00000
     21       0.2414      2.00000
     22       0.6590      2.00000
     23       0.9162      2.00000
     24       1.2219      2.00000
     25       1.2872      2.00000
     26       1.3253      2.00000
     27       1.3983      2.00000
     28       1.4684      2.00000
     29       1.5602      2.00000
     30       1.7230      2.00000
     31       1.8046      2.00000
     32       1.9242      2.00000
     33       1.9444      2.00000
     34       1.9605      2.00000
     35       2.0007      2.00000
     36       2.0746      2.00000
     37       2.1005      2.00000
     38       2.1584      2.00000
     39       2.2166      2.00000
     40       2.2501      2.00000
     41       2.3351      2.00000
     42       2.4090      2.00000
     43       2.4678      2.00000
     44       2.8161      2.00000
     45       3.9919      2.00000
     46       5.0844      2.00000
     47       6.3590      0.17631
     48       7.7066      0.00000
     49       8.1116      0.00000
     50       8.5760      0.00000
     51       8.8214      0.00000
     52       9.5172      0.00000
     53       9.6577      0.00000
     54      10.4775      0.00000
     55      10.5161      0.00000
     56      11.0734      0.00000
     57      11.1803      0.00000
     58      11.2858      0.00000
     59      11.3662      0.00000
     60      11.5602      0.00000
     61      11.9672      0.00000
     62      12.2435      0.00000

 k-point     4 :       0.2308   -0.0000   -0.0000
  band No.  band energies     occupation 
      1     -14.0336      2.00000
      2     -13.9987      2.00000
      3     -13.9182      2.00000
      4     -13.8098      2.00000
      5     -13.6848      2.00000
      6     -13.5497      2.00000
      7     -13.4221      2.00000
      8     -13.3134      2.00000
      9     -13.2305      2.00000
     10      -2.7807      2.00000
     11      -2.3968      2.00000
     12      -1.8666      2.00000
     13      -1.2797      2.00000
     14      -1.1860      2.00000
     15      -1.1382      2.00000
     16      -0.9543      2.00000
     17      -0.7818      2.00000
     18      -0.5029      2.00000
     19      -0.3440      2.00000
     20      -0.1157      2.00000
     21       0.0343      2.00000
     22       0.2302      2.00000
     23       0.4030      2.00000
     24       0.5248      2.00000
     25       0.5733      2.00000
     26       0.7307      2.00000
     27       0.8753      2.00000
     28       1.0681      2.00000
     29       1.2409      2.00000
     30       1.5064      2.00000
     31       1.7434      2.00000
     32       1.7648      2.00000
     33       1.7857      2.00000
     34       1.8431      2.00000
     35       1.9096      2.00000
     36       1.9186      2.00000
     37       2.0043      2.00000
     38       2.0817      2.00000
     39       2.0980      2.00000
     40       2.1850      2.00000
     41       2.2502      2.00000
     42       2.2606      2.00000
     43       2.3205      2.00000
     44       3.3435      2.00000
     45       4.5380      2.00000
     46       5.6334      2.00000
     47       6.9146      0.00000
     48       8.1914      0.00000
     49       8.7267      0.00000
     50       9.0062      0.00000
     51       9.0376      0.00000
     52       9.2642      0.00000
     53       9.4659      0.00000
     54       9.6845      0.00000
     55      10.0187      0.00000
     56      10.2183      0.00000
     57      10.3705      0.00000
     58      10.9864      0.00000
     59      11.0531      0.00000
     60      11.2750      0.00000
     61      11.7721      0.00000
     62      11.9427      0.00000

 k-point     5 :       0.3077   -0.0000    0.0000
  band No.  band energies     occupation 
      1     -13.7669      2.00000
      2     -13.7427      2.00000
      3     -13.6781      2.00000
      4     -13.5925      2.00000
      5     -13.4942      2.00000
      6     -13.3877      2.00000
      7     -13.2882      2.00000
      8     -13.2028      2.00000
      9     -13.1362      2.00000
     10      -1.8783      2.00000
     11      -1.4972      2.00000
     12      -1.0194      2.00000
     13      -0.9862      2.00000
     14      -0.9586      2.00000
     15      -0.9232      2.00000
     16      -0.8695      2.00000
     17      -0.7909      2.00000
     18      -0.7023      2.00000
     19      -0.5308      2.00000
     20      -0.4523      2.00000
     21      -0.3211      2.00000
     22      -0.2420      2.00000
     23      -0.1756      2.00000
     24       0.0550      2.00000
     25       0.3484      2.00000
     26       0.6967      2.00000
     27       0.7993      2.00000
     28       1.1058      2.00000
     29       1.3944      2.00000
     30       1.5706      2.00000
     31       1.6040      2.00000
     32       1.6254      2.00000
     33       1.6837      2.00000
     34       1.7288      2.00000
     35       1.7604      2.00000
     36       1.8475      2.00000
[...]
     58       9.3619      0.00000
     59       9.8020      0.00000
     60      10.1841      0.00000
     61      10.4918      0.00000
     62      10.8557      0.00000

 k-point    19 :       0.3077    0.2308    0.0000
  band No.  band energies     occupation 
      1     -13.3312      2.00000
      2     -13.3223      2.00000
      3     -13.2992      2.00000
      4     -13.2658      2.00000
      5     -13.2276      2.00000
      6     -13.1855      2.00000
      7     -13.1474      2.00000
      8     -13.1136      2.00000
      9     -13.0889      2.00000
     10      -1.2718      2.00000
     11      -1.1818      2.00000
     12      -1.0512      2.00000
     13      -1.0320      2.00000
     14      -0.9822      2.00000
     15      -0.9227      2.00000
     16      -0.8751      2.00000
     17      -0.7277      2.00000
     18      -0.5724      2.00000
     19      -0.1581      2.00000
     20      -0.0080      2.00000
     21       0.1422      2.00000
     22       0.3177      2.00000
     23       0.4340      2.00000
     24       0.5036      2.00000
     25       0.5376      2.00000
     26       0.6285      2.00000
     27       0.7630      2.00000
     28       0.8435      2.00000
     29       0.8590      2.00000
     30       0.9169      2.00000
     31       1.0571      2.00000
     32       1.2165      2.00000
     33       1.2379      2.00000
     34       1.3283      2.00000
     35       1.4006      2.00000
     36       1.5027      2.00000
     37       1.5935      2.00000
     38       1.7070      2.00000
     39       1.7658      2.00000
     40       2.4896      2.00000
     41       3.3481      2.00000
     42       4.0961      2.00000
     43       4.3330      2.00000
     44       4.4765      2.00000
     45       4.9750      2.00000
     46       5.4372      2.00000
     47       5.6838      2.00000
     48       5.7827      2.00000
     49       6.0280      2.00000
     50       6.4268      0.00225
     51       6.6228      0.00000
     52       6.8158      0.00000
     53       7.3173      0.00000
     54       7.6629      0.00000
     55       7.7371      0.00000
     56       8.2378      0.00000
     57       8.5342      0.00000
     58       8.8622      0.00000
     59       9.2264      0.00000
     60       9.5046      0.00000
     61      10.0339      0.00000
     62      10.2558      0.00000

 k-point    20 :       0.3846    0.2308    0.0000
  band No.  band energies     occupation 
      1     -13.2540      2.00000
      2     -13.2459      2.00000
      3     -13.2215      2.00000
      4     -13.2066      2.00000
      5     -13.1872      2.00000
      6     -13.1637      2.00000
      7     -13.1419      2.00000
      8     -13.1209      2.00000
      9     -13.1046      2.00000
     10      -1.3524      2.00000
     11      -1.2539      2.00000
     12      -1.0992      2.00000
     13      -0.9250      2.00000
     14      -0.9134      2.00000
     15      -0.8891      2.00000
     16      -0.8457      2.00000
     17      -0.8008      2.00000
     18      -0.7909      2.00000
     19       0.0264      2.00000
     20       0.0501      2.00000
     21       0.1031      2.00000
     22       0.1578      2.00000
     23       0.1598      2.00000
     24       0.2109      2.00000
     25       0.3419      2.00000
     26       0.5138      2.00000
     27       0.6921      2.00000
     28       0.9495      2.00000
     29       0.9750      2.00000
     30       1.1431      2.00000
     31       1.1966      2.00000
     32       1.2548      2.00000
     33       1.3619      2.00000
     34       1.4917      2.00000
     35       1.5756      2.00000
     36       1.5805      2.00000
     37       2.3556      2.00000
     38       2.3562      2.00000
     39       2.7265      2.00000
     40       2.7398      2.00000
     41       3.2213      2.00000
     42       3.2939      2.00000
     43       3.9051      2.00000
     44       4.0091      2.00000
     45       4.7024      2.00000
     46       4.9672      2.00000
     47       5.5680      2.00000
     48       5.6977      2.00000
     49       5.9273      2.00000
     50       6.0135      2.00000
     51       6.4701      0.00002
     52       6.9432      0.00000
     53       6.9652      0.00000
     54       7.4208      0.00000
     55       7.9836      0.00000
     56       8.0629      0.00000
     57       8.1928      0.00000
     58       8.7178      0.00000
     59       9.1750      0.00000
     60       9.1792      0.00000
     61       9.7240      0.00000
     62      10.2788      0.00000

 k-point    21 :       0.3077    0.3077    0.0000
  band No.  band energies     occupation 
      1     -13.2287      2.00000
      2     -13.2207      2.00000
      3     -13.1897      2.00000
      4     -13.1793      2.00000
      5     -13.1658      2.00000
      6     -13.1490      2.00000
      7     -13.1341      2.00000
      8     -13.1194      2.00000
      9     -13.1078      2.00000
     10      -0.9999      2.00000
     11      -0.9983      2.00000
     12      -0.9159      2.00000
     13      -0.9086      2.00000
     14      -0.8095      2.00000
     15      -0.7621      2.00000
     16      -0.6048      2.00000
     17      -0.6008      2.00000
     18      -0.4960      2.00000
     19      -0.3996      2.00000
     20      -0.3340      2.00000
     21      -0.1993      2.00000
     22      -0.1361      2.00000
     23      -0.0519      2.00000
     24       0.0772      2.00000
     25       0.0943      2.00000
     26       0.2487      2.00000
     27       0.2545      2.00000
     28       0.9562      2.00000
     29       0.9738      2.00000
     30       1.1696      2.00000
     31       1.2894      2.00000
     32       1.3453      2.00000
     33       1.3982      2.00000
     34       1.4011      2.00000
     35       1.4298      2.00000
     36       1.5402      2.00000
     37       2.2316      2.00000
     38       2.6120      2.00000
     39       3.1319      2.00000
     40       3.8063      2.00000
     41       3.8481      2.00000
     42       3.8788      2.00000
     43       4.2177      2.00000
     44       4.2244      2.00000
     45       4.6194      2.00000
     46       4.7312      2.00000
     47       4.7396      2.00000
     48       5.3207      2.00000
     49       5.5167      2.00000
     50       5.7303      2.00000
     51       6.3185      1.00517
     52       6.4017      0.01892
     53       7.0860      0.00000
     54       7.2784      0.00000
     55       7.6394      0.00000
     56       7.9147      0.00000
     57       8.3772      0.00000
     58       8.5979      0.00000
     59       8.7154      0.00000
     60       9.2357      0.00000
     61       9.5260      0.00000
     62       9.8416      0.00000


--------------------------------------------------------------------------------------------------------


 soft charge-density along one line, spin component           1
         0         1         2         3         4         5         6         7         8         9
 total charge-density along one line
 
 pseudopotential strength for first ion, spin component:           1
 12.201   0.000 -14.847   0.000  -0.000   0.000  -0.000   0.000   0.000   0.000   0.000   0.000   0.000   0.000  -0.000   0.000
-14.847   0.000  18.086   0.000   0.000   0.000   0.000   0.000  -0.000   0.000  -0.000   0.000  -0.000   0.000   0.000   0.000
 -0.000   0.000   0.000   0.000  -8.341   0.000  -0.000   0.000   0.000   0.000   9.991   0.000   0.000   0.000  -0.000   0.000
 -0.000   0.000   0.000   0.000  -0.000   0.000  -8.346   0.000   0.000   0.000   0.000   0.000   9.998   0.000  -0.000   0.000
  0.000   0.000  -0.000   0.000   0.000   0.000   0.000   0.000  -8.341   0.000  -0.000   0.000  -0.000   0.000   9.991   0.000
  0.000   0.000  -0.000   0.000   9.991   0.000   0.000   0.000  -0.000   0.000 -11.808   0.000  -0.000   0.000   0.000   0.000
  0.000   0.000  -0.000   0.000   0.000   0.000   9.998   0.000  -0.000   0.000  -0.000   0.000 -11.818   0.000   0.000   0.000
 -0.000   0.000   0.000   0.000  -0.000   0.000  -0.000   0.000   9.991   0.000   0.000   0.000   0.000   0.000 -11.808   0.000
 total augmentation occupancy for first ion, spin component:           1
  2.595   0.360   0.000   0.000  -0.000   0.000  -0.000   0.000
  0.360   0.067   0.000   0.000   0.000   0.000  -0.000   0.000
  0.000   0.000   2.156  -0.000   0.000   0.257  -0.000   0.000
  0.000   0.000  -0.000   2.151   0.000  -0.000   0.262   0.000
 -0.000  -0.000   0.000   0.000   2.156   0.000   0.000   0.257
  0.000   0.000   0.257  -0.000   0.000   0.033  -0.000   0.000
 -0.000  -0.000  -0.000   0.262   0.000  -0.000   0.034  -0.000
  0.000   0.000   0.000   0.000   0.257   0.000  -0.000   0.033


------------------------ aborting loop because EDIFF is reached ----------------------------------------


    CHARGE:  cpu time    0.35: real time    0.35
    FORLOC:  cpu time    0.03: real time    0.03
    FORNL :  cpu time    3.01: real time    3.02
    STRESS:  cpu time    4.04: real time    4.04
    FORCOR:  cpu time    0.13: real time    0.13
    FORHAR:  cpu time    0.05: real time    0.05
    MIXING:  cpu time    0.00: real time    0.00
    OFIELD:  cpu time    0.00: real time    0.00

  FORCE on cell =-STRESS in cart. coord.  units (eV):
  Direction    XX          YY          ZZ          XY          YZ          ZX
  --------------------------------------------------------------------------------------
  Alpha Z   121.05685   121.05685   121.05685
  Ewald   18255.57886 18255.57915-20717.69478    -0.00002    -0.00003    -0.00014
  Hartree 19852.26116 19852.26109-18996.46144    -0.00000    -0.00000     0.00004
  E(xc)    -388.10024  -388.10025  -388.17462    -0.00000     0.00000    -0.00000
  Local  -39243.06735-39243.06687 38577.10372    -0.00016     0.00003     0.00004
  n-local   -26.21377   -38.08320   -29.86676     2.68116    -1.50210     4.84155
  augment    53.47321    53.47299    52.80429     0.00016     0.00000     0.00000
  Kinetic  1400.40736  1352.58674  1367.25564     1.65407    -0.42089     0.62841
  Fock        0.00000     0.00000     0.00000     0.00000     0.00000     0.00000
  -------------------------------------------------------------------------------------
  Total      -4.44872    -4.44872   -13.97711     0.00000     0.00000    -0.00000
  in kB     -21.33961   -21.33959   -67.04536     0.00000     0.00000    -0.00000
  external pressure =      -36.57 kB  Pullay stress =        0.00 kB


 VOLUME and BASIS-vectors are now :
 -----------------------------------------------------------------------------
  energy-cutoff  :      520.00
  volume of cell :      334.01
      direct lattice vectors                 reciprocal lattice vectors
     2.591982046 -1.496481076  0.000000000     0.385805142 -0.000000000 -0.000000000
     0.000000000  2.992962152  0.000000000     0.192902571  0.334117155  0.000000000
     0.000000000 -0.000000000 43.055251419     0.000000000  0.000000000  0.023225971

  length of vectors
     2.992962836  2.992962152 43.055251419     0.385805142  0.385805230  0.023225971


 FORCES acting on ions
    electron-ion (+dipol)            ewald-force                    non-local-force                 convergence-correction
 -----------------------------------------------------------------------------------------------
   0.215E-08 -.518E-08 0.104E+04   -.148E-07 0.223E-07 -.104E+04   -.382E-18 0.631E-18 0.505E-01   -.182E-09 0.126E-09 -.684E-03
   0.106E-02 -.184E-02 0.693E+03   0.559E-04 -.968E-04 -.693E+03   0.317E-21 0.225E-20 0.293E-02   0.101E-07 -.171E-07 0.498E-01
   -.182E-08 0.223E-09 -.322E+00   -.533E-07 0.605E-07 0.239E+00   0.131E-20 0.103E-19 -.474E-02   0.717E-09 -.650E-09 0.920E-01
   0.106E-02 -.184E-02 -.347E+03   0.559E-04 -.968E-04 0.347E+03   0.139E-19 0.425E-20 0.215E-02   -.119E-07 0.211E-07 0.696E-01
   0.460E-09 0.481E-08 -.104E+04   0.750E-07 -.908E-07 0.104E+04   -.665E-19 0.190E-19 -.491E-01   -.488E-09 0.460E-09 -.127E-01
   0.107E-02 -.185E-02 -.138E+04   0.509E-04 -.845E-04 0.138E+04   -.431E-17 0.445E-18 -.115E+01   0.847E-08 -.150E-07 -.408E-01
   -.107E-02 0.185E-02 0.138E+04   -.510E-04 0.846E-04 -.138E+04   -.263E-17 -.392E-17 0.117E+01   -.932E-08 0.158E-07 -.249E-01
   -.106E-02 0.184E-02 0.346E+03   -.559E-04 0.968E-04 -.346E+03   0.539E-21 0.693E-19 -.127E-01   0.893E-08 -.150E-07 0.815E-01
   -.106E-02 0.184E-02 -.693E+03   -.559E-04 0.968E-04 0.693E+03   -.659E-20 0.246E-19 -.656E-02   -.117E-07 0.200E-07 0.205E-01
   -.972E-05 0.264E-05 0.500E+03   0.234E-04 -.248E-04 -.500E+03   0.404E-17 -.180E-19 0.466E-01   -.161E-09 0.234E-09 -.105E-01
   0.164E-08 -.824E-08 0.173E+03   0.186E-07 -.207E-07 -.173E+03   0.498E-21 -.260E-19 -.282E-02   -.198E-09 0.447E-09 0.232E-01
   -.148E-07 0.132E-07 -.173E+03   0.163E-07 -.182E-07 0.173E+03   0.524E-20 0.769E-20 -.235E-02   0.388E-09 -.856E-09 0.167E-01
   0.972E-05 -.264E-05 -.499E+03   -.234E-04 0.248E-04 0.499E+03   -.751E-17 0.417E-16 -.437E-01   -.111E-09 0.272E-09 -.162E-01
   0.428E-04 -.741E-04 0.289E+03   -.480E-04 0.832E-04 -.289E+03   -.113E-18 0.273E-20 -.706E-02   0.168E-09 -.506E-09 0.929E-02
   0.428E-04 -.741E-04 -.579E+02   -.480E-04 0.832E-04 0.578E+02   -.473E-19 0.554E-19 -.312E-02   0.230E-10 0.373E-10 0.289E-01
   0.428E-04 -.740E-04 -.404E+03   -.479E-04 0.829E-04 0.404E+03   0.143E-17 -.253E-19 0.652E-01   -.149E-09 0.115E-09 -.114E-01
   -.428E-04 0.741E-04 0.404E+03   0.479E-04 -.830E-04 -.404E+03   -.145E-17 0.209E-19 -.540E-01   -.279E-09 0.681E-09 -.621E-02
   -.428E-04 0.742E-04 0.577E+02   0.481E-04 -.832E-04 -.577E+02   0.976E-19 0.378E-20 -.977E-02   0.777E-09 -.148E-08 0.327E-01
   -.427E-04 0.740E-04 -.289E+03   0.480E-04 -.831E-04 0.289E+03   0.163E-18 -.221E-18 0.951E-02   -.535E-09 0.116E-08 -.112E-02
   0.389E-10 -.445E-10 -.680E-01   0.810E-10 -.838E-10 0.785E-01   -.312E-19 -.271E-19 0.108E-03   -.193E-11 0.178E-11 -.103E-01
   -.433E-06 -.269E-07 0.487E+03   0.162E-05 -.147E-05 -.487E+03   -.225E-16 0.687E-19 -.178E+00   0.280E-11 -.148E-11 -.140E-01
   0.149E-04 -.258E-04 0.317E+03   -.264E-05 0.473E-05 -.317E+03   -.295E-18 -.278E-16 0.238E+00   -.445E-11 0.732E-11 -.109E-01
   -.147E-04 0.255E-04 0.157E+03   0.293E-05 -.502E-05 -.157E+03   -.901E-18 0.166E-18 0.131E+00   -.249E-11 0.644E-12 -.942E-02
   0.434E-06 0.271E-07 -.487E+03   -.163E-05 0.147E-05 0.486E+03   0.396E-18 -.139E-16 0.173E+00   0.762E-11 -.815E-11 -.196E-01
   0.147E-04 -.255E-04 -.157E+03   -.294E-05 0.503E-05 0.157E+03   0.449E-19 0.699E-18 -.126E+00   0.690E-11 -.733E-11 -.125E-01
   -.149E-04 0.258E-04 -.317E+03   0.265E-05 -.474E-05 0.317E+03   0.107E-16 0.140E-16 -.237E+00   -.373E-11 0.150E-10 -.158E-01
 -----------------------------------------------------------------------------------------------
   -.101E-07 0.104E-07 -.211E+00   -.996E-14 -.527E-13 0.455E-12   -.234E-16 0.118E-16 0.273E-02   -.540E-08 0.990E-08 0.207E+00
 
 
 POSITION                                       TOTAL-FORCE (eV/Angst)
 -----------------------------------------------------------------------------------
     -0.00000     -0.00000     15.12642        -0.000000      0.000000     -0.006689
      0.86399      1.49648     17.63023         0.000000      0.000000      0.000388
     -0.00000     -0.00000     22.63703        -0.000000     -0.000000      0.003618
      0.86399      1.49648     25.14053         0.000000     -0.000000      0.006277
     -0.00000     -0.00000     30.15047        -0.000000     -0.000000      0.000081
      0.86399      1.49648     32.65623         0.000000     -0.000000      0.013754
      1.72799     -0.00000     12.62124        -0.000000      0.000000     -0.013666
      1.72799     -0.00000     20.13404        -0.000000     -0.000000     -0.002501
      1.72799     -0.00000     27.64542         0.000000      0.000000     -0.000685
     -0.00000     -0.00000     11.33234        -0.000000      0.000000     -0.002776
     -0.00000     -0.00000     18.88232        -0.000000     -0.000000      0.005218
     -0.00000     -0.00000     26.39315        -0.000000      0.000000     -0.002743
     -0.00000     -0.00000     33.94495        -0.000000      0.000000     -0.004442
      1.72799     -0.00000     16.37887        -0.000000     -0.000000      0.001097
      1.72799     -0.00000     23.88906        -0.000000     -0.000000      0.004649
      1.72799     -0.00000     31.40197        -0.000000      0.000000     -0.002828
      0.86399      1.49648     13.87432        -0.000000     -0.000000      0.008305
      0.86399      1.49648     21.38627        -0.000000      0.000000     -0.006266
      0.86399      1.49648     28.89717        -0.000000     -0.000000     -0.000712
     -0.00000     -0.00000      1.10983        -0.000000     -0.000000      0.000317
     -0.00000     -0.00000      8.33380        -0.000000     -0.000000      0.004269
      1.72799     -0.00000      5.88149        -0.000000     -0.000000      0.010449
      0.86399      1.49648      3.48633        -0.000000     -0.000000      0.013880
     -0.00000     -0.00000     36.94340        -0.000000      0.000000     -0.005693
      1.72799     -0.00000     41.78860        -0.000000      0.000000     -0.013115
      0.86399      1.49648     39.39434        -0.000000      0.000000     -0.010186
 -----------------------------------------------------------------------------------
    total drift:                               -0.000000      0.000000     -0.001292


--------------------------------------------------------------------------------------------------------



  FREE ENERGIE OF THE ION-ELECTRON SYSTEM (eV)
  ---------------------------------------------------
  free  energy   TOTEN  =      -132.98445044 eV

  energy  without entropy=     -132.97877992  energy(sigma->0) =     -132.98161518
 
 d Force = 0.1261712E-03[ 0.523E-04, 0.200E-03]  d Energy = 0.1187742E-03 0.740E-05
 d Force = 0.3504799E+00[ 0.350E+00, 0.351E+00]  d Ewald  = 0.3504800E+00-0.225E-07


--------------------------------------------------------------------------------------------------------


    POTLOK:  cpu time    0.20: real time    0.20


--------------------------------------------------------------------------------------------------------


 Conjugate gradient step on ions:
 trial-energy change:   -0.000119  1 .order   -0.000126   -0.000200   -0.000052
  (g-gl).g = 0.678E-04      g.g   = 0.170E-03  gl.gl    = 0.102E-02
 g(Force)  = 0.170E-03   g(Stress)= 0.000E+00 ortho     = 0.245E-04
 gamma     =   0.06659
 trial     =   1.16315
 opt step  =   1.57539  (harmonic =   1.57539) maximal distance =0.00184697
 next E    =  -132.984467   (d E  =  -0.00014)


--------------------------------------------------------------------------------------------------------


  
 reached required accuracy - stopping structural energy minimisation
     LOOP+:  cpu time   31.13: real time   31.16
    4ORBIT:  cpu time    0.00: real time    0.00

 total amount of memory used by VASP on root node   147697. kBytes
========================================================================

   base      :      30000. kBytes
   nonl-proj :      15873. kBytes
   fftplans  :      55173. kBytes
   grid      :      22118. kBytes
   one-center:         56. kBytes
   wavefun   :      24477. kBytes
 
  
  
 General timing and accounting informations for this job:
 ========================================================
  
                  Total CPU time used (sec):      962.177
                            User time (sec):      950.161
                          System time (sec):       12.016
                         Elapsed time (sec):      963.256
  
                   Maximum memory used (kb):      250964.
                   Average memory used (kb):           0.
  
                          Minor page faults:       221881
                          Major page faults:            0
                 Voluntary context switches:          174
