       N       E                     dE             d eps       ncg     rms          rms(c)
DAV:   1     0.480988022530E+03    0.48099E+03   -0.40806E+04  6100   0.131E+03
DAV:   2    -0.863542380278E+02   -0.56734E+03   -0.53577E+03  7958   0.247E+02
DAV:   3    -0.145963920740E+03   -0.59610E+02   -0.59233E+02  7122   0.865E+01
DAV:   4    -0.146786273222E+03   -0.82235E+00   -0.82076E+00  7120   0.110E+01
DAV:   5    -0.146799169228E+03   -0.12896E-01   -0.12889E-01  7182   0.136E+00    0.220E+01
DAV:   6    -0.132350673386E+03    0.14448E+02   -0.83782E+01  7248   0.290E+01    0.751E+00
DAV:   7    -0.132256768512E+03    0.93905E-01   -0.19910E+00  6682   0.521E+00    0.460E+00
DAV:   8    -0.132155030222E+03    0.10174E+00   -0.55006E-01  7052   0.407E+00    0.930E-01
DAV:   9    -0.132138395256E+03    0.16635E-01   -0.65731E-02  7050   0.120E+00    0.505E-01
DAV:  10    -0.132139049747E+03   -0.65449E-03   -0.59207E-02  6868   0.102E+00    0.262E-01
DAV:  11    -0.132138997473E+03    0.52274E-04   -0.43840E-03  7012   0.304E-01    0.231E-01
DAV:  12    -0.132138449262E+03    0.54821E-03   -0.49273E-03  8144   0.376E-01    0.103E-01
DAV:  13    -0.132138427811E+03    0.21451E-04   -0.21865E-03  6770   0.214E-01    0.588E-02
DAV:  14    -0.132138344588E+03    0.83223E-04   -0.31671E-04  6932   0.923E-02    0.219E-02
DAV:  15    -0.132138329360E+03    0.15228E-04   -0.78952E-05  6462   0.383E-02    0.940E-03
DAV:  16    -0.132138282645E+03    0.46715E-04   -0.39622E-05  6138   0.615E-02    0.167E-02
DAV:  17    -0.132138257108E+03    0.25536E-04   -0.99730E-06  4520   0.457E-02    0.134E-02
DAV:  18    -0.132138179062E+03    0.78046E-04   -0.40862E-04 10212   0.312E-01    0.322E-02
DAV:  19    -0.132138169056E+03    0.10006E-04   -0.26737E-04  6702   0.796E-02    0.284E-02
DAV:  20    -0.132138149885E+03    0.19171E-04   -0.10357E-04  6554   0.493E-02    0.710E-03
DAV:  21    -0.132138149009E+03    0.87553E-06   -0.24248E-05  4944   0.316E-02
   1 F= -.13213815E+03 E0= -.13213569E+03  d E =-.132138E+03
       N       E                     dE             d eps       ncg     rms          rms(c)
DAV:   1    -0.132139403194E+03   -0.12533E-02   -0.21618E-02  6738   0.645E-01    0.304E-02
DAV:   2    -0.132139407510E+03   -0.43158E-05   -0.88596E-04  7108   0.147E-01    0.259E-02
DAV:   3    -0.132139385503E+03    0.22007E-04   -0.93089E-05  7082   0.482E-02    0.198E-02
DAV:   4    -0.132139361561E+03    0.23942E-04   -0.30437E-05  5774   0.275E-02    0.961E-03
DAV:   5    -0.132139336560E+03    0.25001E-04   -0.38090E-05  6344   0.522E-02    0.848E-03
DAV:   6    -0.132139329304E+03    0.72558E-05   -0.29086E-05  5874   0.443E-02
   2 F= -.13213933E+03 E0= -.13213689E+03  d E =-.118030E-02
       N       E                     dE             d eps       ncg     rms          rms(c)
DAV:   1    -0.132139861311E+03   -0.52475E-03   -0.27271E-02  6672   0.722E-01    0.309E-02
DAV:   2    -0.132139859522E+03    0.17896E-05   -0.10377E-03  7148   0.156E-01    0.281E-02
DAV:   3    -0.132139826742E+03    0.32780E-04   -0.91928E-05  7104   0.511E-02    0.217E-02
DAV:   4    -0.132139781526E+03    0.45216E-04   -0.67672E-05  6664   0.481E-02    0.102E-02
DAV:   5    -0.132139753562E+03    0.27964E-04   -0.43407E-05  6656   0.597E-02    0.116E-02
DAV:   6    -0.132139743549E+03    0.10013E-04   -0.40397E-05  6320   0.514E-02    0.651E-03
DAV:   7    -0.132139744219E+03   -0.66954E-06   -0.41726E-05  5710   0.306E-02
   3 F= -.13213974E+03 E0= -.13213732E+03  d E =-.159521E-02
       N       E                     dE             d eps       ncg     rms          rms(c)
DAV:   1    -0.132140383321E+03   -0.63977E-03   -0.16966E-01  6342   0.179E+00    0.515E-02
DAV:   2    -0.132140724292E+03   -0.34097E-03   -0.38542E-03  6782   0.243E-01    0.313E-02
DAV:   3    -0.132140699038E+03    0.25254E-04   -0.33185E-05  6512   0.367E-02    0.214E-02
DAV:   4    -0.132140676286E+03    0.22753E-04   -0.60429E-05  6544   0.613E-02    0.518E-03
DAV:   5    -0.132140678217E+03   -0.19311E-05   -0.41850E-05  5704   0.280E-02    0.721E-03
DAV:   6    -0.132140677860E+03    0.35642E-06   -0.16584E-06  3644   0.518E-03
   4 F= -.13214068E+03 E0= -.13213827E+03  d E =-.933641E-03
       N       E                     dE             d eps       ncg     rms          rms(c)
DAV:   1    -0.132139214643E+03    0.14636E-02   -0.15225E+00  6268   0.536E+00    0.154E-01
DAV:   2    -0.132142254962E+03   -0.30403E-02   -0.34618E-02  6788   0.730E-01    0.958E-02
DAV:   3    -0.132142003548E+03    0.25141E-03   -0.32923E-04  7260   0.125E-01    0.652E-02
DAV:   4    -0.132141753372E+03    0.25018E-03   -0.50196E-04  7270   0.197E-01    0.196E-02
DAV:   5    -0.132141745992E+03    0.73807E-05   -0.41049E-04  6930   0.997E-02    0.210E-02
DAV:   6    -0.132141721957E+03    0.24035E-04   -0.45266E-05  5944   0.317E-02    0.118E-02
DAV:   7    -0.132141670088E+03    0.51868E-04   -0.20380E-05  4944   0.655E-02    0.693E-03
DAV:   8    -0.132141622781E+03    0.47308E-04   -0.35533E-05  6258   0.799E-02    0.109E-02
DAV:   9    -0.132141577032E+03    0.45749E-04   -0.29840E-05  5812   0.101E-01    0.125E-02
DAV:  10    -0.132141526537E+03    0.50495E-04   -0.74605E-05  7692   0.163E-01    0.979E-03
DAV:  11    -0.132141518486E+03    0.80513E-05   -0.12256E-04  6144   0.720E-02    0.471E-03
DAV:  12    -0.132141506552E+03    0.11934E-04   -0.26875E-05  5588   0.666E-02    0.931E-03
DAV:  13    -0.132141500307E+03    0.62456E-05   -0.18206E-05  5308   0.511E-02
   5 F= -.13214150E+03 E0= -.13213915E+03  d E =-.175609E-02
       N       E                     dE             d eps       ncg     rms          rms(c)
DAV:   1    -0.132141473231E+03    0.33321E-04   -0.63405E-02  6324   0.109E+00    0.295E-02
DAV:   2    -0.132141592425E+03   -0.11919E-03   -0.13896E-03  6770   0.149E-01    0.208E-02
DAV:   3    -0.132141581418E+03    0.11006E-04   -0.14834E-05  4804   0.257E-02    0.144E-02
DAV:   4    -0.132141570175E+03    0.11244E-04   -0.20669E-05  5440   0.374E-02    0.448E-03
DAV:   5    -0.132141569623E+03    0.55165E-06   -0.17838E-05  4060   0.225E-02    0.351E-03
DAV:   6    -0.132141568575E+03    0.10485E-05   -0.32510E-06  3678   0.108E-02
   6 F= -.13214157E+03 E0= -.13213921E+03  d E =-.182436E-02
       N       E                     dE             d eps       ncg     rms          rms(c)
DAV:   1    -0.132141956903E+03   -0.38728E-03   -0.15015E-01  6308   0.168E+00    0.476E-02
DAV:   2    -0.132142267561E+03   -0.31066E-03   -0.33866E-03  6578   0.230E-01    0.282E-02
DAV:   3    -0.132142249097E+03    0.18464E-04   -0.30103E-05  5848   0.278E-02    0.199E-02
DAV:   4    -0.132142232979E+03    0.16118E-04   -0.52403E-05  6370   0.400E-02    0.714E-03
DAV:   5    -0.132142231065E+03    0.19144E-05   -0.16585E-05  4600   0.212E-02    0.616E-03
DAV:   6    -0.132142229128E+03    0.19365E-05   -0.47296E-06  3768   0.130E-02
   7 F= -.13214223E+03 E0= -.13213989E+03  d E =-.660554E-03
       N       E                     dE             d eps       ncg     rms          rms(c)
DAV:   1    -0.132141063149E+03    0.11679E-02   -0.13489E+00  6308   0.505E+00    0.143E-01
DAV:   2    -0.132143842887E+03   -0.27797E-02   -0.30263E-02  6530   0.689E-01    0.837E-02
DAV:   3    -0.132143680255E+03    0.16263E-03   -0.27531E-04  7208   0.824E-02    0.585E-02
DAV:   4    -0.132143547234E+03    0.13302E-03   -0.39592E-04  7030   0.110E-01    0.211E-02
DAV:   5    -0.132143528743E+03    0.18491E-04   -0.13989E-04  6864   0.604E-02    0.171E-02
DAV:   6    -0.132143512492E+03    0.16251E-04   -0.36127E-05  5740   0.352E-02    0.788E-03
DAV:   7    -0.132143486163E+03    0.26329E-04   -0.72198E-06  4502   0.438E-02    0.519E-03
DAV:   8    -0.132143444240E+03    0.41923E-04   -0.18348E-05  5168   0.781E-02    0.884E-03
DAV:   9    -0.132143411180E+03    0.33060E-04   -0.28524E-05  6036   0.746E-02    0.670E-03
DAV:  10    -0.132143359839E+03    0.51341E-04   -0.13480E-04  8852   0.200E-01    0.184E-02
DAV:  11    -0.132143360178E+03   -0.33922E-06   -0.13148E-04  6384   0.678E-02    0.201E-02
DAV:  12    -0.132143355504E+03    0.46741E-05   -0.50980E-05  5940   0.364E-02
   8 F= -.13214336E+03 E0= -.13214104E+03  d E =-.178693E-02
       N       E                     dE             d eps       ncg     rms          rms(c)
DAV:   1    -0.132143012546E+03    0.34763E-03   -0.27052E-01  6256   0.226E+00    0.638E-02
DAV:   2    -0.132143571402E+03   -0.55886E-03   -0.61400E-03  6600   0.309E-01    0.380E-02
DAV:   3    -0.132143540862E+03    0.30539E-04   -0.65485E-05  7030   0.387E-02    0.275E-02
DAV:   4    -0.132143516791E+03    0.24071E-04   -0.69355E-05  6494   0.471E-02    0.107E-02
DAV:   5    -0.132143511959E+03    0.48325E-05   -0.29873E-05  5538   0.282E-02    0.875E-03
DAV:   6    -0.132143508848E+03    0.31101E-05   -0.71894E-06  3714   0.154E-02
   9 F= -.13214351E+03 E0= -.13214121E+03  d E =-.194027E-02
       N       E                     dE             d eps       ncg     rms          rms(c)
DAV:   1    -0.132144098117E+03   -0.58616E-03   -0.12013E-01  6088   0.146E+00    0.394E-02
DAV:   2    -0.132144298684E+03   -0.20057E-03   -0.23156E-03  6916   0.189E-01    0.262E-02
DAV:   3    -0.132144281658E+03    0.17026E-04   -0.25463E-05  5456   0.309E-02    0.182E-02
DAV:   4    -0.132144270168E+03    0.11491E-04   -0.66199E-05  6510   0.475E-02    0.728E-03
DAV:   5    -0.132144270342E+03   -0.17427E-06   -0.20717E-05  4656   0.201E-02    0.717E-03
DAV:   6    -0.132144269655E+03    0.68688E-06   -0.33902E-06  3650   0.887E-03
  10 F= -.13214427E+03 E0= -.13214197E+03  d E =-.760806E-03
       N       E                     dE             d eps       ncg     rms          rms(c)
DAV:   1    -0.132143879057E+03    0.39129E-03   -0.10810E+00  6076   0.438E+00    0.121E-01
DAV:   2    -0.132145689360E+03   -0.18103E-02   -0.21218E-02  6880   0.573E-01    0.773E-02
DAV:   3    -0.132145544680E+03    0.14468E-03   -0.26221E-04  7252   0.889E-02    0.553E-02
DAV:   4    -0.132145452142E+03    0.92538E-04   -0.65152E-04  7178   0.135E-01    0.254E-02
DAV:   5    -0.132145454362E+03   -0.22197E-05   -0.16495E-04  6978   0.544E-02    0.277E-02
DAV:   6    -0.132145445326E+03    0.90358E-05   -0.29142E-05  5152   0.261E-02
  11 F= -.13214545E+03 E0= -.13214314E+03  d E =-.193648E-02
       N       E                     dE             d eps       ncg     rms          rms(c)
DAV:   1    -0.132146093501E+03   -0.63914E-03   -0.12060E-01  6100   0.153E+00    0.501E-02
DAV:   2    -0.132146348692E+03   -0.25519E-03   -0.30141E-03  6706   0.229E-01    0.285E-02
DAV:   3    -0.132146336367E+03    0.12325E-04   -0.78202E-05  6776   0.403E-02    0.225E-02
DAV:   4    -0.132146324937E+03    0.11430E-04   -0.37159E-05  5720   0.257E-02    0.103E-02
DAV:   5    -0.132146316841E+03    0.80956E-05   -0.15701E-05  3856   0.284E-02    0.101E-02
DAV:   6    -0.132146310709E+03    0.61330E-05   -0.48562E-06  4080   0.276E-02
  12 F= -.13214631E+03 E0= -.13214401E+03  d E =-.865383E-03
       N       E                     dE             d eps       ncg     rms          rms(c)
DAV:   1    -0.132145646455E+03    0.67039E-03   -0.83228E-01  6100   0.402E+00    0.131E-01
DAV:   2    -0.132147409435E+03   -0.17630E-02   -0.21148E-02  6724   0.609E-01    0.759E-02
DAV:   3    -0.132147324671E+03    0.84765E-04   -0.57567E-04  7126   0.109E-01    0.615E-02
DAV:   4    -0.132147247105E+03    0.77566E-04   -0.22461E-04  6720   0.621E-02    0.288E-02
DAV:   5    -0.132147191685E+03    0.55420E-04   -0.14938E-04  6744   0.752E-02    0.274E-02
DAV:   6    -0.132147158826E+03    0.32859E-04   -0.45150E-05  5974   0.680E-02    0.210E-02
DAV:   7    -0.132147141199E+03    0.17627E-04   -0.86981E-05  6410   0.602E-02    0.117E-02
DAV:   8    -0.132147123314E+03    0.17885E-04   -0.29385E-05  5728   0.340E-02    0.126E-02
DAV:   9    -0.132147094566E+03    0.28748E-04   -0.37150E-05  6020   0.746E-02    0.257E-02
DAV:  10    -0.132147052347E+03    0.42219E-04   -0.39079E-05  6260   0.105E-01    0.188E-02
DAV:  11    -0.132147037385E+03    0.14962E-04   -0.15965E-04  6986   0.996E-02    0.110E-02
DAV:  12    -0.132147029148E+03    0.82370E-05   -0.46509E-05  6392   0.627E-02
  13 F= -.13214703E+03 E0= -.13214473E+03  d E =-.158382E-02
       N       E                     dE             d eps       ncg     rms          rms(c)
DAV:   1    -0.132147242629E+03   -0.20524E-03   -0.84412E-02  6380   0.127E+00    0.408E-02
DAV:   2    -0.132147451977E+03   -0.20935E-03   -0.22695E-03  6718   0.188E-01    0.273E-02
DAV:   3    -0.132147437169E+03    0.14808E-04   -0.25206E-05  5244   0.307E-02    0.184E-02
DAV:   4    -0.132147430021E+03    0.71487E-05   -0.79917E-05  6538   0.524E-02    0.874E-03
DAV:   5    -0.132147429995E+03    0.25520E-07   -0.18203E-05  4316   0.193E-02    0.824E-03
DAV:   6    -0.132147428989E+03    0.10060E-05   -0.65401E-06  3488   0.106E-02
  14 F= -.13214743E+03 E0= -.13214512E+03  d E =-.399841E-03
       N       E                     dE             d eps       ncg     rms          rms(c)
DAV:   1    -0.132147071375E+03    0.35862E-03   -0.74814E-01  6132   0.376E+00    0.105E-01
DAV:   2    -0.132148574902E+03   -0.15035E-02   -0.16189E-02  6552   0.510E-01    0.604E-02
DAV:   3    -0.132148496676E+03    0.78226E-04   -0.15639E-04  7292   0.619E-02    0.417E-02
DAV:   4    -0.132148438885E+03    0.57791E-04   -0.22585E-04  7154   0.979E-02    0.128E-02
DAV:   5    -0.132148443381E+03   -0.44958E-05   -0.10818E-04  6510   0.440E-02    0.160E-02
DAV:   6    -0.132148441511E+03    0.18703E-05   -0.38634E-06  3680   0.893E-03
  15 F= -.13214844E+03 E0= -.13214613E+03  d E =-.141236E-02
       N       E                     dE             d eps       ncg     rms          rms(c)
DAV:   1    -0.132144002395E+03    0.44410E-02   -0.29937E+00  6132   0.753E+00    0.213E-01
DAV:   2    -0.132150058256E+03   -0.60559E-02   -0.65327E-02  6546   0.102E+00    0.121E-01
DAV:   3    -0.132149741613E+03    0.31664E-03   -0.63438E-04  7262   0.126E-01    0.838E-02
DAV:   4    -0.132149500996E+03    0.24062E-03   -0.91294E-04  7242   0.200E-01    0.263E-02
DAV:   5    -0.132149516403E+03   -0.15406E-04   -0.44877E-04  6934   0.911E-02    0.323E-02
DAV:   6    -0.132149505937E+03    0.10466E-04   -0.20971E-05  4268   0.205E-02    0.260E-02
DAV:   7    -0.132149481789E+03    0.24147E-04   -0.70457E-05  6104   0.303E-02    0.101E-02
DAV:   8    -0.132149466824E+03    0.14966E-04   -0.33829E-05  5676   0.370E-02    0.178E-02
DAV:   9    -0.132149441805E+03    0.25019E-04   -0.69110E-05  7174   0.774E-02    0.975E-03
DAV:  10    -0.132149427372E+03    0.14433E-04   -0.43743E-05  6328   0.514E-02    0.989E-03
DAV:  11    -0.132149412493E+03    0.14880E-04   -0.90915E-06  4168   0.450E-02    0.104E-02
DAV:  12    -0.132149384691E+03    0.27802E-04   -0.27589E-05  5754   0.815E-02    0.105E-02
DAV:  13    -0.132149367920E+03    0.16771E-04   -0.53454E-05  6954   0.109E-01    0.120E-02
DAV:  14    -0.132149366945E+03    0.97521E-06   -0.60014E-05  6580   0.735E-02
  16 F= -.13214937E+03 E0= -.13214705E+03  d E =-.233780E-02
       N       E                     dE             d eps       ncg     rms          rms(c)
DAV:   1    -0.132150250737E+03   -0.88282E-03   -0.98038E-02  6364   0.138E+00    0.487E-02
DAV:   2    -0.132150490541E+03   -0.23980E-03   -0.30202E-03  6826   0.230E-01    0.353E-02
DAV:   3    -0.132150470964E+03    0.19577E-04   -0.79456E-05  6728   0.435E-02    0.287E-02
DAV:   4    -0.132150453108E+03    0.17856E-04   -0.72305E-05  6150   0.404E-02    0.105E-02
DAV:   5    -0.132150448090E+03    0.50187E-05   -0.29363E-05  5970   0.334E-02    0.129E-02
DAV:   6    -0.132150444101E+03    0.39886E-05   -0.11502E-05  4166   0.241E-02
  17 F= -.13215044E+03 E0= -.13214812E+03  d E =-.107716E-02
       N       E                     dE             d eps       ncg     rms          rms(c)
DAV:   1    -0.132150609570E+03   -0.16148E-03   -0.20556E-01  6264   0.200E+00    0.733E-02
DAV:   2    -0.132151109675E+03   -0.50011E-03   -0.64150E-03  6828   0.337E-01    0.524E-02
DAV:   3    -0.132151063935E+03    0.45741E-04   -0.18023E-04  7024   0.672E-02    0.422E-02
DAV:   4    -0.132151021031E+03    0.42903E-04   -0.17146E-04  6484   0.638E-02    0.153E-02
DAV:   5    -0.132151006285E+03    0.14747E-04   -0.59570E-05  6696   0.542E-02    0.193E-02
DAV:   6    -0.132150995412E+03    0.10873E-04   -0.37995E-05  5856   0.422E-02    0.122E-02
DAV:   7    -0.132150992820E+03    0.25919E-05   -0.24979E-05  4784   0.221E-02
  18 F= -.13215099E+03 E0= -.13214866E+03  d E =-.162588E-02
       N       E                     dE             d eps       ncg     rms          rms(c)
DAV:   1    -0.132151317407E+03   -0.32199E-03   -0.11225E-01  6468   0.147E+00    0.411E-02
DAV:   2    -0.132151534562E+03   -0.21716E-03   -0.25085E-03  6740   0.202E-01    0.284E-02
DAV:   3    -0.132151512832E+03    0.21730E-04   -0.22655E-05  5448   0.325E-02    0.201E-02
DAV:   4    -0.132151495065E+03    0.17766E-04   -0.96898E-05  6320   0.614E-02    0.783E-03
DAV:   5    -0.132151496873E+03   -0.18079E-05   -0.33301E-05  5482   0.236E-02    0.956E-03
DAV:   6    -0.132151498399E+03   -0.15261E-05   -0.13209E-06  3596   0.640E-03
  19 F= -.13215150E+03 E0= -.13214916E+03  d E =-.505579E-03
       N       E                     dE             d eps       ncg     rms          rms(c)
DAV:   1    -0.132150916635E+03    0.58024E-03   -0.66219E-01  6468   0.356E+00    0.979E-02
DAV:   2    -0.132152192301E+03   -0.12757E-02   -0.14650E-02  6716   0.487E-01    0.686E-02
DAV:   3    -0.132152070222E+03    0.12208E-03   -0.13377E-04  7146   0.781E-02    0.481E-02
DAV:   4    -0.132151976833E+03    0.93388E-04   -0.51725E-04  7226   0.144E-01    0.165E-02
DAV:   5    -0.132151989756E+03   -0.12923E-04   -0.17377E-04  6240   0.532E-02    0.202E-02
DAV:   6    -0.132152004123E+03   -0.14366E-04   -0.17366E-05  4296   0.216E-02    0.313E-02
DAV:   7    -0.132151985088E+03    0.19035E-04   -0.22604E-04  6260   0.656E-02    0.138E-02
DAV:   8    -0.132151982820E+03    0.22673E-05   -0.16400E-05  4324   0.216E-02
  20 F= -.13215198E+03 E0= -.13214963E+03  d E =-.990000E-03
       N       E                     dE             d eps       ncg     rms          rms(c)
DAV:   1    -0.132152196014E+03   -0.21093E-03   -0.74686E-03  6178   0.390E-01    0.192E-02
DAV:   2    -0.132152218166E+03   -0.22151E-04   -0.37477E-04  7034   0.842E-02    0.178E-02
DAV:   3    -0.132152213168E+03    0.49980E-05   -0.15785E-05  3992   0.223E-02    0.140E-02
DAV:   4    -0.132152207953E+03    0.52141E-05   -0.25206E-05  5232   0.253E-02    0.478E-03
DAV:   5    -0.132152206118E+03    0.18355E-05   -0.58917E-06  3778   0.184E-02    0.590E-03
DAV:   6    -0.132152204182E+03    0.19364E-05   -0.32990E-06  3954   0.168E-02
  21 F= -.13215220E+03 E0= -.13214984E+03  d E =-.221361E-03
       N       E                     dE             d eps       ncg     rms          rms(c)
DAV:   1    -0.132152234662E+03   -0.28544E-04   -0.30281E-03  6232   0.251E-01    0.114E-02
DAV:   2    -0.132152243397E+03   -0.87353E-05   -0.16426E-04  7080   0.557E-02    0.129E-02
DAV:   3    -0.132152240189E+03    0.32082E-05   -0.68640E-06  3764   0.152E-02    0.102E-02
DAV:   4    -0.132152234598E+03    0.55909E-05   -0.11646E-05  3808   0.218E-02    0.387E-03
DAV:   5    -0.132152231476E+03    0.31226E-05   -0.87344E-06  3976   0.235E-02    0.636E-03
DAV:   6    -0.132152228340E+03    0.31359E-05   -0.72124E-06  3762   0.222E-02
  22 F= -.13215223E+03 E0= -.13214986E+03  d E =-.245520E-03
       N       E                     dE             d eps       ncg     rms          rms(c)
DAV:   1    -0.132152420821E+03   -0.18935E-03   -0.21911E-02  6304   0.646E-01    0.211E-02
DAV:   2    -0.132152453164E+03   -0.32343E-04   -0.49777E-04  6980   0.932E-02    0.132E-02
DAV:   3    -0.132152446837E+03    0.63278E-05   -0.14345E-05  4354   0.205E-02    0.953E-03
DAV:   4    -0.132152439256E+03    0.75808E-05   -0.11850E-05  4426   0.215E-02    0.441E-03
DAV:   5    -0.132152434830E+03    0.44261E-05   -0.73620E-06  4032   0.172E-02    0.482E-03
DAV:   6    -0.132152429481E+03    0.53482E-05   -0.39638E-06  3928   0.228E-02
  23 F= -.13215243E+03 E0= -.13215005E+03  d E =-.201142E-03
       N       E                     dE             d eps       ncg     rms          rms(c)
DAV:   1    -0.132152487122E+03   -0.52292E-04   -0.63736E-02  6392   0.110E+00    0.333E-02
DAV:   2    -0.132152594739E+03   -0.10762E-03   -0.14568E-03  7002   0.155E-01    0.236E-02
DAV:   3    -0.132152577062E+03    0.17677E-04   -0.23165E-05  5752   0.287E-02    0.168E-02
DAV:   4    -0.132152552490E+03    0.24571E-04   -0.81745E-05  6658   0.533E-02    0.964E-03
DAV:   5    -0.132152550926E+03    0.15644E-05   -0.22122E-05  4972   0.201E-02    0.107E-02
DAV:   6    -0.132152548809E+03    0.21174E-05   -0.30421E-06  3656   0.863E-03
  24 F= -.13215255E+03 E0= -.13215016E+03  d E =-.320469E-03
       N       E                     dE             d eps       ncg     rms          rms(c)
DAV:   1    -0.132152671636E+03   -0.12071E-03   -0.46074E-02  6352   0.948E-01    0.323E-02
DAV:   2    -0.132152780075E+03   -0.10844E-03   -0.13058E-03  6740   0.148E-01    0.188E-02
DAV:   3    -0.132152773796E+03    0.62791E-05   -0.29092E-05  5680   0.251E-02    0.144E-02
DAV:   4    -0.132152769176E+03    0.46196E-05   -0.16099E-05  3772   0.193E-02    0.589E-03
DAV:   5    -0.132152767920E+03    0.12559E-05   -0.73637E-06  3666   0.144E-02    0.518E-03
DAV:   6    -0.132152767218E+03    0.70233E-06   -0.21030E-06  3648   0.112E-02
  25 F= -.13215277E+03 E0= -.13215037E+03  d E =-.218409E-03
       N       E                     dE             d eps       ncg     rms          rms(c)
DAV:   1    -0.132152267553E+03    0.50037E-03   -0.41348E-01  6352   0.284E+00    0.893E-02
DAV:   2    -0.132153174877E+03   -0.90732E-03   -0.10632E-02  6704   0.419E-01    0.521E-02
DAV:   3    -0.132153116308E+03    0.58570E-04   -0.17966E-04  7174   0.641E-02    0.390E-02
DAV:   4    -0.132153070767E+03    0.45541E-04   -0.13113E-04  6836   0.641E-02    0.158E-02
DAV:   5    -0.132153054352E+03    0.16415E-04   -0.57372E-05  6600   0.472E-02    0.124E-02
DAV:   6    -0.132153046655E+03    0.76971E-05   -0.20601E-05  4680   0.269E-02
  26 F= -.13215305E+03 E0= -.13215062E+03  d E =-.497847E-03
       N       E                     dE             d eps       ncg     rms          rms(c)
DAV:   1    -0.132153101882E+03   -0.47529E-04   -0.75497E-02  6468   0.121E+00    0.363E-02
DAV:   2    -0.132153248954E+03   -0.14707E-03   -0.18146E-03  6654   0.172E-01    0.215E-02
DAV:   3    -0.132153227331E+03    0.21623E-04   -0.22971E-05  5386   0.317E-02    0.150E-02
DAV:   4    -0.132153199733E+03    0.27599E-04   -0.28613E-05  5902   0.444E-02    0.631E-03
DAV:   5    -0.132153183890E+03    0.15842E-04   -0.21993E-05  5042   0.375E-02    0.482E-03
DAV:   6    -0.132153166213E+03    0.17677E-04   -0.10417E-05  4594   0.400E-02    0.503E-03
DAV:   7    -0.132153142541E+03    0.23672E-04   -0.10558E-05  4944   0.586E-02    0.623E-03
DAV:   8    -0.132153123847E+03    0.18694E-04   -0.24842E-05  5632   0.642E-02    0.420E-03
DAV:   9    -0.132153106056E+03    0.17791E-04   -0.25915E-05  5808   0.996E-02    0.388E-03
DAV:  10    -0.132153106908E+03   -0.85168E-06   -0.57078E-05  6040   0.503E-02
  27 F= -.13215311E+03 E0= -.13215068E+03  d E =-.602529E-04
       N       E                     dE             d eps       ncg     rms          rms(c)
DAV:   1    -0.132153108895E+03   -0.28385E-05   -0.42391E-04  6472   0.895E-02    0.696E-03
DAV:   2    -0.132153108910E+03   -0.15702E-07   -0.16813E-05  4072   0.185E-02    0.255E-03
DAV:   3    -0.132153108727E+03    0.18361E-06   -0.20353E-06  3608   0.699E-03    0.195E-03
DAV:   4    -0.132153108421E+03    0.30580E-06   -0.23632E-07  3578   0.581E-03    0.105E-03
DAV:   5    -0.132153108049E+03    0.37182E-06   -0.39397E-07  3634   0.868E-03    0.861E-04
DAV:   6    -0.132153107979E+03    0.69991E-07   -0.64161E-07  3458   0.424E-03
  28 F= -.13215311E+03 E0= -.13215068E+03  d E =-.613242E-04
       N       E                     dE             d eps       ncg     rms          rms(c)
DAV:   1    -0.132153328098E+03   -0.22005E-03   -0.92108E-03  6190   0.430E-01    0.178E-02
DAV:   2    -0.132153346223E+03   -0.18125E-04   -0.33762E-04  6826   0.825E-02    0.145E-02
DAV:   3    -0.132153341501E+03    0.47223E-05   -0.17700E-05  4828   0.232E-02    0.113E-02
DAV:   4    -0.132153335511E+03    0.59900E-05   -0.10900E-05  4170   0.206E-02    0.507E-03
DAV:   5    -0.132153330777E+03    0.47340E-05   -0.55927E-06  3956   0.254E-02    0.444E-03
DAV:   6    -0.132153326829E+03    0.39478E-05   -0.62088E-06  4202   0.311E-02
  29 F= -.13215333E+03 E0= -.13215089E+03  d E =-.218850E-03
       N       E                     dE             d eps       ncg     rms          rms(c)
DAV:   1    -0.132153379641E+03   -0.48864E-04   -0.82584E-03  6244   0.410E-01    0.167E-02
DAV:   2    -0.132153394756E+03   -0.15115E-04   -0.32500E-04  6860   0.814E-02    0.148E-02
DAV:   3    -0.132153388403E+03    0.63527E-05   -0.16512E-05  4524   0.229E-02    0.117E-02
DAV:   4    -0.132153377564E+03    0.10839E-04   -0.13497E-05  4556   0.267E-02    0.517E-03
DAV:   5    -0.132153368687E+03    0.88772E-05   -0.80742E-06  4124   0.333E-02    0.616E-03
DAV:   6    -0.132153358846E+03    0.98405E-05   -0.93672E-06  4452   0.475E-02
  30 F= -.13215336E+03 E0= -.13215091E+03  d E =-.250867E-03
       N       E                     dE             d eps       ncg     rms          rms(c)
DAV:   1    -0.132153504474E+03   -0.13579E-03   -0.15515E-02  6452   0.539E-01    0.170E-02
DAV:   2    -0.132153524900E+03   -0.20425E-04   -0.38983E-04  6976   0.835E-02    0.142E-02
DAV:   3    -0.132153515349E+03    0.95505E-05   -0.10091E-05  4170   0.201E-02    0.107E-02
DAV:   4    -0.132153495590E+03    0.19759E-04   -0.17021E-05  5038   0.349E-02    0.530E-03
DAV:   5    -0.132153486955E+03    0.86349E-05   -0.11736E-05  3924   0.249E-02    0.563E-03
DAV:   6    -0.132153476963E+03    0.99919E-05   -0.91742E-06  4180   0.330E-02
  31 F= -.13215348E+03 E0= -.13215103E+03  d E =-.118117E-03
       N       E                     dE             d eps       ncg     rms          rms(c)
DAV:   1    -0.132153434116E+03    0.52839E-04   -0.15512E-02  6548   0.552E-01    0.205E-02
DAV:   2    -0.132153468102E+03   -0.33986E-04   -0.55194E-04  7118   0.999E-02    0.186E-02
DAV:   3    -0.132153457021E+03    0.11081E-04   -0.18688E-05  4162   0.210E-02    0.127E-02
DAV:   4    -0.132153438973E+03    0.18048E-04   -0.18833E-05  4866   0.228E-02    0.587E-03
DAV:   5    -0.132153429377E+03    0.95963E-05   -0.47661E-06  3746   0.198E-02    0.531E-03
DAV:   6    -0.132153392578E+03    0.36798E-04   -0.31122E-05  6104   0.985E-02    0.652E-03
DAV:   7    -0.132153372675E+03    0.19903E-04   -0.54733E-05  6778   0.795E-02    0.829E-03
DAV:   8    -0.132153367392E+03    0.52835E-05   -0.25645E-05  5376   0.269E-02
  32 F= -.13215337E+03 E0= -.13215091E+03  d E =-.854589E-05
       N       E                     dE             d eps       ncg     rms          rms(c)
DAV:   1    -0.132153412724E+03   -0.40049E-04   -0.39843E-03  6632   0.276E-01    0.213E-02
DAV:   2    -0.132153415152E+03   -0.24274E-05   -0.18520E-04  6608   0.631E-02    0.792E-03
DAV:   3    -0.132153414021E+03    0.11302E-05   -0.15442E-05  4080   0.176E-02    0.583E-03
DAV:   4    -0.132153412679E+03    0.13421E-05   -0.40494E-06  3722   0.117E-02    0.225E-03
DAV:   5    -0.132153411695E+03    0.98411E-06   -0.24260E-06  3702   0.111E-02    0.197E-03
DAV:   6    -0.132153411154E+03    0.54118E-06   -0.13657E-06  3728   0.874E-03
  33 F= -.13215341E+03 E0= -.13215096E+03  d E =-.523080E-04
       N       E                     dE             d eps       ncg     rms          rms(c)
DAV:   1    -0.132153426047E+03   -0.14351E-04   -0.73990E-04  6238   0.117E-01    0.388E-03
DAV:   2    -0.132153426771E+03   -0.72417E-06   -0.16471E-05  4570   0.173E-02    0.231E-03
DAV:   3    -0.132153426284E+03    0.48636E-06   -0.73723E-07  3446   0.525E-03    0.181E-03
DAV:   4    -0.132153425133E+03    0.11511E-05   -0.62558E-07  3704   0.983E-03    0.855E-04
DAV:   5    -0.132153424376E+03    0.75743E-06   -0.13388E-06  3784   0.959E-03    0.121E-03
DAV:   6    -0.132153424180E+03    0.19583E-06   -0.87881E-07  3476   0.607E-03
  34 F= -.13215342E+03 E0= -.13215097E+03  d E =-.653340E-04
       N       E                     dE             d eps       ncg     rms          rms(c)
DAV:   1    -0.132153428772E+03   -0.43956E-05   -0.31643E-04  6510   0.788E-02    0.349E-03
DAV:   2    -0.132153429194E+03   -0.42276E-06   -0.11093E-05  3840   0.155E-02    0.219E-03
DAV:   3    -0.132153428957E+03    0.23727E-06   -0.11729E-06  3554   0.523E-03    0.163E-03
DAV:   4    -0.132153428534E+03    0.42329E-06   -0.26777E-07  3596   0.344E-03    0.907E-04
DAV:   5    -0.132153428061E+03    0.47254E-06   -0.20129E-07  3578   0.509E-03    0.892E-04
DAV:   6    -0.132153427132E+03    0.92912E-06   -0.46396E-07  3784   0.142E-02
  35 F= -.13215343E+03 E0= -.13215098E+03  d E =-.682860E-04
       N       E                     dE             d eps       ncg     rms          rms(c)
DAV:   1    -0.132153527381E+03   -0.99320E-04   -0.23346E-02  6440   0.646E-01    0.189E-02
DAV:   2    -0.132153564668E+03   -0.37287E-04   -0.49735E-04  6854   0.930E-02    0.136E-02
DAV:   3    -0.132153558176E+03    0.64919E-05   -0.11905E-05  4056   0.216E-02    0.100E-02
DAV:   4    -0.132153550448E+03    0.77287E-05   -0.96301E-06  4100   0.249E-02    0.471E-03
DAV:   5    -0.132153546982E+03    0.34652E-05   -0.10906E-05  4336   0.252E-02    0.371E-03
DAV:   6    -0.132153546591E+03    0.39125E-06   -0.69718E-06  3464   0.137E-02
  36 F= -.13215355E+03 E0= -.13215109E+03  d E =-.119459E-03
       N       E                     dE             d eps       ncg     rms          rms(c)
DAV:   1    -0.132153555231E+03   -0.82490E-05   -0.24023E-02  6492   0.656E-01    0.189E-02
DAV:   2    -0.132153588826E+03   -0.33594E-04   -0.49734E-04  7054   0.949E-02    0.136E-02
DAV:   3    -0.132153580698E+03    0.81274E-05   -0.15740E-05  4344   0.261E-02    0.105E-02
DAV:   4    -0.132153571424E+03    0.92743E-05   -0.78578E-06  4082   0.252E-02    0.584E-03
DAV:   5    -0.132153562645E+03    0.87793E-05   -0.13635E-05  4924   0.387E-02    0.422E-03
DAV:   6    -0.132153559940E+03    0.27046E-05   -0.14467E-05  4652   0.303E-02
  37 F= -.13215356E+03 E0= -.13215110E+03  d E =-.132808E-03
       N       E                     dE             d eps       ncg     rms          rms(c)
DAV:   1    -0.132153639726E+03   -0.77081E-04   -0.19695E-02  6492   0.616E-01    0.184E-02
DAV:   2    -0.132153676947E+03   -0.37221E-04   -0.46175E-04  6796   0.887E-02    0.113E-02
DAV:   3    -0.132153671055E+03    0.58914E-05   -0.72307E-06  3860   0.164E-02    0.773E-03
DAV:   4    -0.132153663534E+03    0.75218E-05   -0.34065E-06  3804   0.211E-02    0.381E-03
DAV:   5    -0.132153656080E+03    0.74537E-05   -0.50737E-06  4168   0.299E-02    0.242E-03
DAV:   6    -0.132153653442E+03    0.26376E-05   -0.80853E-06  3672   0.192E-02
  38 F= -.13215365E+03 E0= -.13215119E+03  d E =-.935024E-04
