Automatically generated mesh
    3600
Reciprocal lattice
    0.02083333333333    0.02083333333333    0.02083333333333            96
    0.06250000000000    0.02083333333333    0.02083333333333            96
    0.08333333333333   -0.06250000000000    0.02083333333333            96
    0.10416666666667    0.02083333333333    0.02083333333333            96
    0.12500000000000   -0.10416666666667    0.02083333333333            96
    0.14583333333333    0.02083333333333    0.02083333333333            96
    0.16666666666667   -0.14583333333333    0.02083333333333            96
    0.18750000000000    0.02083333333333    0.02083333333333            96
    0.20833333333333   -0.18750000000000    0.02083333333333            96
    0.22916666666667    0.02083333333333    0.02083333333333            96
    0.25000000000000   -0.22916666666667    0.02083333333333            96
    0.27083333333333    0.02083333333333    0.02083333333333            96
    0.29166666666667   -0.27083333333333    0.02083333333333            96
    0.31250000000000    0.02083333333333    0.02083333333333            96
    0.33333333333333   -0.31250000000000    0.02083333333333            96
    0.35416666666667    0.02083333333333    0.02083333333333            96
    0.37500000000000   -0.35416666666667    0.02083333333333            96
    0.39583333333333    0.02083333333333    0.02083333333333            96
    0.41666666666667   -0.39583333333333    0.02083333333333            96
    0.43750000000000    0.02083333333333    0.02083333333333            96
    0.45833333333333   -0.43750000000000    0.02083333333333            96
    0.47916666666667    0.02083333333333    0.02083333333333            96
    0.50000000000000   -0.47916666666667    0.02083333333333            96
   -0.47916666666667    0.02083333333333    0.02083333333333            96
   -0.45833333333333    0.47916666666667    0.02083333333333            96
   -0.43750000000000    0.02083333333333    0.02083333333333            96
   -0.41666666666667    0.43750000000000    0.02083333333333            96
   -0.39583333333333    0.02083333333333    0.02083333333333            96
   -0.37500000000000    0.39583333333333    0.02083333333333            96
   -0.35416666666667    0.02083333333333    0.02083333333333            96
   -0.33333333333333    0.35416666666667    0.02083333333333            96
   -0.31250000000000    0.02083333333333    0.02083333333333            96
   -0.29166666666667    0.31250000000000    0.02083333333333            96
   -0.27083333333333    0.02083333333333    0.02083333333333            96
   -0.25000000000000    0.27083333333333    0.02083333333333            96
   -0.22916666666667    0.02083333333333    0.02083333333333            96
   -0.20833333333333    0.22916666666667    0.02083333333333            96
   -0.18750000000000    0.02083333333333    0.02083333333333            96
   -0.16666666666667    0.18750000000000    0.02083333333333            96
   -0.14583333333333    0.02083333333333    0.02083333333333            96
   -0.12500000000000    0.14583333333333    0.02083333333333            96
   -0.10416666666667    0.02083333333333    0.02083333333333            96
   -0.08333333333333    0.10416666666667    0.02083333333333            96
   -0.06250000000000    0.02083333333333    0.02083333333333            96
   -0.04166666666667    0.06250000000000    0.02083333333333            96
   -0.02083333333333    0.02083333333333    0.02083333333333            48
   -0.00000000000000    0.02083333333333    0.02083333333333            48
    0.06250000000000    0.06250000000000    0.02083333333333            96
    0.10416666666667    0.06250000000000    0.02083333333333            96
    0.16666666666667   -0.10416666666667    0.02083333333333            96
    0.14583333333333    0.06250000000000    0.02083333333333            96
    0.20833333333333   -0.14583333333333    0.02083333333333            96
    0.18750000000000    0.06250000000000    0.02083333333333            96
    0.25000000000000   -0.18750000000000    0.02083333333333            96
    0.22916666666667    0.06250000000000    0.02083333333333            96
    0.29166666666667   -0.22916666666667    0.02083333333333            96
    0.27083333333333    0.06250000000000    0.02083333333333            96
    0.33333333333333   -0.27083333333333    0.02083333333333            96
    0.31250000000000    0.06250000000000    0.02083333333333            96
    0.37500000000000   -0.31250000000000    0.02083333333333            96
    0.35416666666667    0.06250000000000    0.02083333333333            96
    0.41666666666667   -0.35416666666667    0.02083333333333            96
    0.39583333333333    0.06250000000000    0.02083333333333            96
    0.45833333333333   -0.39583333333333    0.02083333333333            96
    0.43750000000000    0.06250000000000    0.02083333333333            96
    0.50000000000000   -0.43750000000000    0.02083333333333            96
    0.47916666666667    0.06250000000000    0.02083333333333            96
   -0.45833333333333   -0.47916666666667    0.02083333333333            96
   -0.47916666666667    0.06250000000000    0.02083333333333            96
   -0.41666666666667    0.47916666666667    0.02083333333333            96
   -0.43750000000000    0.06250000000000    0.02083333333333            96
   -0.37500000000000    0.43750000000000    0.02083333333333            96
   -0.39583333333333    0.06250000000000    0.02083333333333            96
   -0.33333333333333    0.39583333333333    0.02083333333333            96
   -0.35416666666667    0.06250000000000    0.02083333333333            96
   -0.29166666666667    0.35416666666667    0.02083333333333            96
   -0.31250000000000    0.06250000000000    0.02083333333333            96
   -0.25000000000000    0.31250000000000    0.02083333333333            96
   -0.27083333333333    0.06250000000000    0.02083333333333            96
   -0.20833333333333    0.27083333333333    0.02083333333333            96
   -0.22916666666667    0.06250000000000    0.02083333333333            96
   -0.16666666666667    0.22916666666667    0.02083333333333            96
   -0.18750000000000    0.06250000000000    0.02083333333333            96
   -0.12500000000000    0.18750000000000    0.02083333333333            96
   -0.14583333333333    0.06250000000000    0.02083333333333            96
   -0.08333333333333    0.14583333333333    0.02083333333333            96
   -0.10416666666667    0.06250000000000    0.02083333333333            96
   -0.04166666666667    0.10416666666667    0.02083333333333            96
   -0.06250000000000    0.06250000000000    0.02083333333333            48
    0.00000000000000    0.06250000000000    0.02083333333333            48
    0.10416666666667    0.10416666666667    0.02083333333333            96
    0.14583333333333    0.10416666666667    0.02083333333333            96
    0.25000000000000   -0.14583333333333    0.02083333333333            96
    0.18750000000000    0.10416666666667    0.02083333333333            96
    0.29166666666667   -0.18750000000000    0.02083333333333            96
    0.22916666666667    0.10416666666667    0.02083333333333            96
    0.33333333333333   -0.22916666666667    0.02083333333333            96
    0.27083333333333    0.10416666666667    0.02083333333333            96
    0.37500000000000   -0.27083333333333    0.02083333333333            96
    0.31250000000000    0.10416666666667    0.02083333333333            96
    0.41666666666667   -0.31250000000000    0.02083333333333            96
    0.35416666666667    0.10416666666667    0.02083333333333            96
    0.45833333333333   -0.35416666666667    0.02083333333333            96
    0.39583333333333    0.10416666666667    0.02083333333333            96
    0.50000000000000   -0.39583333333333    0.02083333333333            96
    0.43750000000000    0.10416666666667    0.02083333333333            96
   -0.45833333333333   -0.43750000000000    0.02083333333333            96
    0.47916666666667    0.10416666666667    0.02083333333333            96
   -0.41666666666667   -0.47916666666667    0.02083333333333            96
   -0.47916666666667    0.10416666666667    0.02083333333333            96
   -0.37500000000000    0.47916666666667    0.02083333333333            96
   -0.43750000000000    0.10416666666667    0.02083333333333            96
   -0.33333333333333    0.43750000000000    0.02083333333333            96
   -0.39583333333333    0.10416666666667    0.02083333333333            96
   -0.29166666666667    0.39583333333333    0.02083333333333            96
   -0.35416666666667    0.10416666666667    0.02083333333333            96
   -0.25000000000000    0.35416666666667    0.02083333333333            96
   -0.31250000000000    0.10416666666667    0.02083333333333            96
   -0.20833333333333    0.31250000000000    0.02083333333333            96
   -0.27083333333333    0.10416666666667    0.02083333333333            96
   -0.16666666666667    0.27083333333333    0.02083333333333            96
   -0.22916666666667    0.10416666666667    0.02083333333333            96
   -0.12500000000000    0.22916666666667    0.02083333333333            96
   -0.18750000000000    0.10416666666667    0.02083333333333            96
   -0.08333333333333    0.18750000000000    0.02083333333333            96
   -0.14583333333333    0.10416666666667    0.02083333333333            96
   -0.04166666666667    0.14583333333333    0.02083333333333            96
   -0.10416666666667    0.10416666666667    0.02083333333333            48
   -0.00000000000000    0.10416666666667    0.02083333333333            48
    0.14583333333333    0.14583333333333    0.02083333333333            96
    0.18750000000000    0.14583333333333    0.02083333333333            96
    0.33333333333333   -0.18750000000000    0.02083333333333            96
    0.22916666666667    0.14583333333333    0.02083333333333            96
    0.37500000000000   -0.22916666666667    0.02083333333333            96
    0.27083333333333    0.14583333333333    0.02083333333333            96
    0.41666666666667   -0.27083333333333    0.02083333333333            96
    0.31250000000000    0.14583333333333    0.02083333333333            96
    0.45833333333333   -0.31250000000000    0.02083333333333            96
    0.35416666666667    0.14583333333333    0.02083333333333            96
    0.50000000000000   -0.35416666666667    0.02083333333333            96
    0.39583333333333    0.14583333333333    0.02083333333333            96
   -0.45833333333333   -0.39583333333333    0.02083333333333            96
    0.43750000000000    0.14583333333333    0.02083333333333            96
   -0.41666666666667   -0.43750000000000    0.02083333333333            96
    0.47916666666667    0.14583333333333    0.02083333333333            96
   -0.37500000000000   -0.47916666666667    0.02083333333333            96
   -0.47916666666667    0.14583333333333    0.02083333333333            96
   -0.33333333333333    0.47916666666667    0.02083333333333            96
   -0.43750000000000    0.14583333333333    0.02083333333333            96
   -0.29166666666667    0.43750000000000    0.02083333333333            96
   -0.39583333333333    0.14583333333333    0.02083333333333            96
   -0.25000000000000    0.39583333333333    0.02083333333333            96
   -0.35416666666667    0.14583333333333    0.02083333333333            96
   -0.20833333333333    0.35416666666667    0.02083333333333            96
   -0.31250000000000    0.14583333333333    0.02083333333333            96
   -0.16666666666667    0.31250000000000    0.02083333333333            96
   -0.27083333333333    0.14583333333333    0.02083333333333            96
   -0.12500000000000    0.27083333333333    0.02083333333333            96
   -0.22916666666667    0.14583333333333    0.02083333333333            96
   -0.08333333333333    0.22916666666667    0.02083333333333            96
   -0.18750000000000    0.14583333333333    0.02083333333333            96
   -0.04166666666667    0.18750000000000    0.02083333333333            96
   -0.14583333333333    0.14583333333333    0.02083333333333            48
    0.00000000000000    0.14583333333333    0.02083333333333            48
    0.18750000000000    0.18750000000000    0.02083333333333            96
    0.22916666666667    0.18750000000000    0.02083333333333            96
    0.41666666666667   -0.22916666666667    0.02083333333333            96
    0.27083333333333    0.18750000000000    0.02083333333333            96
    0.45833333333333   -0.27083333333333    0.02083333333333            96
    0.31250000000000    0.18750000000000    0.02083333333333            96
    0.50000000000000   -0.31250000000000    0.02083333333333            96
    0.35416666666667    0.18750000000000    0.02083333333333            96
   -0.45833333333333   -0.35416666666667    0.02083333333333            96
    0.39583333333333    0.18750000000000    0.02083333333333            96
   -0.41666666666667   -0.39583333333333    0.02083333333333            96
    0.43750000000000    0.18750000000000    0.02083333333333            96
   -0.37500000000000   -0.43750000000000    0.02083333333333            96
    0.47916666666667    0.18750000000000    0.02083333333333            96
   -0.33333333333333   -0.47916666666667    0.02083333333333            96
   -0.47916666666667    0.18750000000000    0.02083333333333            96
   -0.29166666666667    0.47916666666667    0.02083333333333            96
   -0.43750000000000    0.18750000000000    0.02083333333333            96
   -0.25000000000000    0.43750000000000    0.02083333333333            96
   -0.39583333333333    0.18750000000000    0.02083333333333            96
   -0.20833333333333    0.39583333333333    0.02083333333333            96
   -0.35416666666667    0.18750000000000    0.02083333333333            96
   -0.16666666666667    0.35416666666667    0.02083333333333            96
   -0.31250000000000    0.18750000000000    0.02083333333333            96
   -0.12500000000000    0.31250000000000    0.02083333333333            96
   -0.27083333333333    0.18750000000000    0.02083333333333            96
   -0.08333333333333    0.27083333333333    0.02083333333333            96
   -0.22916666666667    0.18750000000000    0.02083333333333            96
   -0.04166666666667    0.22916666666667    0.02083333333333            96
   -0.18750000000000    0.18750000000000    0.02083333333333            48
    0.00000000000000    0.18750000000000    0.02083333333333            48
    0.22916666666667    0.22916666666667    0.02083333333333            96
    0.27083333333333    0.22916666666667    0.02083333333333            96
    0.50000000000000   -0.27083333333333    0.02083333333333            96
    0.31250000000000    0.22916666666667    0.02083333333333            96
   -0.45833333333333   -0.31250000000000    0.02083333333333            96
    0.35416666666667    0.22916666666667    0.02083333333333            96
   -0.41666666666667   -0.35416666666667    0.02083333333333            96
    0.39583333333333    0.22916666666667    0.02083333333333            96
   -0.37500000000000   -0.39583333333333    0.02083333333333            96
    0.43750000000000    0.22916666666667    0.02083333333333            96
   -0.33333333333333   -0.43750000000000    0.02083333333333            96
    0.47916666666667    0.22916666666667    0.02083333333333            96
   -0.29166666666667   -0.47916666666667    0.02083333333333            96
   -0.47916666666667    0.22916666666667    0.02083333333333            96
   -0.25000000000000    0.47916666666667    0.02083333333333            96
   -0.43750000000000    0.22916666666667    0.02083333333333            96
   -0.20833333333333    0.43750000000000    0.02083333333333            96
   -0.39583333333333    0.22916666666667    0.02083333333333            96
   -0.16666666666667    0.39583333333333    0.02083333333333            96
   -0.35416666666667    0.22916666666667    0.02083333333333            96
   -0.12500000000000    0.35416666666667    0.02083333333333            96
   -0.31250000000000    0.22916666666667    0.02083333333333            96
   -0.08333333333333    0.31250000000000    0.02083333333333            96
   -0.27083333333333    0.22916666666667    0.02083333333333            96
   -0.04166666666667    0.27083333333333    0.02083333333333            96
   -0.22916666666667    0.22916666666667    0.02083333333333            48
   -0.00000000000000    0.22916666666667    0.02083333333333            48
    0.27083333333333    0.27083333333333    0.02083333333333            96
    0.31250000000000    0.27083333333333    0.02083333333333            96
   -0.41666666666667   -0.31250000000000    0.02083333333333            96
    0.35416666666667    0.27083333333333    0.02083333333333            96
   -0.37500000000000   -0.35416666666667    0.02083333333333            96
    0.39583333333333    0.27083333333333    0.02083333333333            96
   -0.33333333333333   -0.39583333333333    0.02083333333333            96
    0.43750000000000    0.27083333333333    0.02083333333333            96
   -0.29166666666667   -0.43750000000000    0.02083333333333            96
    0.47916666666667    0.27083333333333    0.02083333333333            96
   -0.25000000000000   -0.47916666666667    0.02083333333333            96
   -0.47916666666667    0.27083333333333    0.02083333333333            96
   -0.20833333333333    0.47916666666667    0.02083333333333            96
   -0.43750000000000    0.27083333333333    0.02083333333333            96
   -0.16666666666667    0.43750000000000    0.02083333333333            96
   -0.39583333333333    0.27083333333333    0.02083333333333            96
   -0.12500000000000    0.39583333333333    0.02083333333333            96
   -0.35416666666667    0.27083333333333    0.02083333333333            96
   -0.08333333333333    0.35416666666667    0.02083333333333            96
   -0.31250000000000    0.27083333333333    0.02083333333333            96
   -0.04166666666667    0.31250000000000    0.02083333333333            96
   -0.27083333333333    0.27083333333333    0.02083333333333            48
    0.00000000000000    0.27083333333333    0.02083333333333            48
    0.31250000000000    0.31250000000000    0.02083333333333            96
    0.35416666666667    0.31250000000000    0.02083333333333            96
   -0.33333333333333   -0.35416666666667    0.02083333333333            96
    0.39583333333333    0.31250000000000    0.02083333333333            96
   -0.29166666666667   -0.39583333333333    0.02083333333333            96
    0.43750000000000    0.31250000000000    0.02083333333333            96
   -0.25000000000000   -0.43750000000000    0.02083333333333            96
    0.47916666666667    0.31250000000000    0.02083333333333            96
   -0.20833333333333   -0.47916666666667    0.02083333333333            96
   -0.47916666666667    0.31250000000000    0.02083333333333            96
   -0.16666666666667    0.47916666666667    0.02083333333333            96
   -0.43750000000000    0.31250000000000    0.02083333333333            96
   -0.12500000000000    0.43750000000000    0.02083333333333            96
   -0.39583333333333    0.31250000000000    0.02083333333333            96
   -0.08333333333333    0.39583333333333    0.02083333333333            96
   -0.35416666666667    0.31250000000000    0.02083333333333            96
   -0.04166666666667    0.35416666666667    0.02083333333333            96
   -0.31250000000000    0.31250000000000    0.02083333333333            48
    0.00000000000000    0.31250000000000    0.02083333333333            48
    0.35416666666667    0.35416666666667    0.02083333333333            96
    0.39583333333333    0.35416666666667    0.02083333333333            96
   -0.25000000000000   -0.39583333333333    0.02083333333333            96
    0.43750000000000    0.35416666666667    0.02083333333333            96
   -0.20833333333333   -0.43750000000000    0.02083333333333            96
    0.47916666666667    0.35416666666667    0.02083333333333            96
   -0.16666666666667   -0.47916666666667    0.02083333333333            96
   -0.47916666666667    0.35416666666667    0.02083333333333            96
   -0.12500000000000    0.47916666666667    0.02083333333333            96
   -0.43750000000000    0.35416666666667    0.02083333333333            96
   -0.08333333333333    0.43750000000000    0.02083333333333            96
   -0.39583333333333    0.35416666666667    0.02083333333333            96
   -0.04166666666667    0.39583333333333    0.02083333333333            96
   -0.35416666666667    0.35416666666667    0.02083333333333            48
    0.00000000000000    0.35416666666667    0.02083333333333            48
    0.39583333333333    0.39583333333333    0.02083333333333            96
    0.43750000000000    0.39583333333333    0.02083333333333            96
   -0.16666666666667   -0.43750000000000    0.02083333333333            96
    0.47916666666667    0.39583333333333    0.02083333333333            96
   -0.12500000000000   -0.47916666666667    0.02083333333333            96
   -0.47916666666667    0.39583333333333    0.02083333333333            96
   -0.08333333333333    0.47916666666667    0.02083333333333            96
   -0.43750000000000    0.39583333333333    0.02083333333333            96
   -0.04166666666667    0.43750000000000    0.02083333333333            96
   -0.39583333333333    0.39583333333333    0.02083333333333            48
    0.00000000000000    0.39583333333333    0.02083333333333            48
    0.43750000000000    0.43750000000000    0.02083333333333            96
    0.47916666666667    0.43750000000000    0.02083333333333            96
   -0.08333333333333   -0.47916666666667    0.02083333333333            96
   -0.47916666666667    0.43750000000000    0.02083333333333            96
   -0.04166666666667    0.47916666666667    0.02083333333333            96
   -0.43750000000000    0.43750000000000    0.02083333333333            48
    0.00000000000000    0.43750000000000    0.02083333333333            48
    0.47916666666667    0.47916666666667    0.02083333333333            96
   -0.47916666666667    0.47916666666667    0.02083333333333            48
    0.00000000000000    0.47916666666667    0.02083333333333            48
    0.02083333333333    0.02083333333333    0.06250000000000            96
    0.06250000000000    0.02083333333333    0.06250000000000            96
    0.08333333333333   -0.06250000000000    0.06250000000000            96
    0.10416666666667    0.02083333333333    0.06250000000000            96
    0.12500000000000   -0.10416666666667    0.06250000000000            96
    0.14583333333333    0.02083333333333    0.06250000000000            96
    0.16666666666667   -0.14583333333333    0.06250000000000            96
    0.18750000000000    0.02083333333333    0.06250000000000            96
    0.20833333333333   -0.18750000000000    0.06250000000000            96
    0.22916666666667    0.02083333333333    0.06250000000000            96
    0.25000000000000   -0.22916666666667    0.06250000000000            96
    0.27083333333333    0.02083333333333    0.06250000000000            96
    0.29166666666667   -0.27083333333333    0.06250000000000            96
    0.31250000000000    0.02083333333333    0.06250000000000            96
    0.33333333333333   -0.31250000000000    0.06250000000000            96
    0.35416666666667    0.02083333333333    0.06250000000000            96
    0.37500000000000   -0.35416666666667    0.06250000000000            96
    0.39583333333333    0.02083333333333    0.06250000000000            96
    0.41666666666667   -0.39583333333333    0.06250000000000            96
    0.43750000000000    0.02083333333333    0.06250000000000            96
    0.45833333333333   -0.43750000000000    0.06250000000000            96
    0.47916666666667    0.02083333333333    0.06250000000000            96
    0.50000000000000   -0.47916666666667    0.06250000000000            96
   -0.47916666666667    0.02083333333333    0.06250000000000            96
   -0.45833333333333    0.47916666666667    0.06250000000000            96
   -0.43750000000000    0.02083333333333    0.06250000000000            96
   -0.41666666666667    0.43750000000000    0.06250000000000            96
   -0.39583333333333    0.02083333333333    0.06250000000000            96
   -0.37500000000000    0.39583333333333    0.06250000000000            96
   -0.35416666666667    0.02083333333333    0.06250000000000            96
   -0.33333333333333    0.35416666666667    0.06250000000000            96
   -0.31250000000000    0.02083333333333    0.06250000000000            96
   -0.29166666666667    0.31250000000000    0.06250000000000            96
   -0.27083333333333    0.02083333333333    0.06250000000000            96
   -0.25000000000000    0.27083333333333    0.06250000000000            96
   -0.22916666666667    0.02083333333333    0.06250000000000            96
   -0.20833333333333    0.22916666666667    0.06250000000000            96
   -0.18750000000000    0.02083333333333    0.06250000000000            96
   -0.16666666666667    0.18750000000000    0.06250000000000            96
   -0.14583333333333    0.02083333333333    0.06250000000000            96
   -0.12500000000000    0.14583333333333    0.06250000000000            96
   -0.10416666666667    0.02083333333333    0.06250000000000            96
   -0.08333333333333    0.10416666666667    0.06250000000000            96
   -0.06250000000000    0.02083333333333    0.06250000000000            96
   -0.04166666666667    0.06250000000000    0.06250000000000            96
   -0.02083333333333    0.02083333333333    0.06250000000000            48
   -0.00000000000000    0.02083333333333    0.06250000000000            48
    0.06250000000000    0.06250000000000    0.06250000000000            96
    0.10416666666667    0.06250000000000    0.06250000000000            96
    0.16666666666667   -0.10416666666667    0.06250000000000            96
    0.14583333333333    0.06250000000000    0.06250000000000            96
    0.20833333333333   -0.14583333333333    0.06250000000000            96
    0.18750000000000    0.06250000000000    0.06250000000000            96
    0.25000000000000   -0.18750000000000    0.06250000000000            96
    0.22916666666667    0.06250000000000    0.06250000000000            96
    0.29166666666667   -0.22916666666667    0.06250000000000            96
    0.27083333333333    0.06250000000000    0.06250000000000            96
    0.33333333333333   -0.27083333333333    0.06250000000000            96
    0.31250000000000    0.06250000000000    0.06250000000000            96
    0.37500000000000   -0.31250000000000    0.06250000000000            96
    0.35416666666667    0.06250000000000    0.06250000000000            96
    0.41666666666667   -0.35416666666667    0.06250000000000            96
    0.39583333333333    0.06250000000000    0.06250000000000            96
    0.45833333333333   -0.39583333333333    0.06250000000000            96
    0.43750000000000    0.06250000000000    0.06250000000000            96
    0.50000000000000   -0.43750000000000    0.06250000000000            96
    0.47916666666667    0.06250000000000    0.06250000000000            96
   -0.45833333333333   -0.47916666666667    0.06250000000000            96
   -0.47916666666667    0.06250000000000    0.06250000000000            96
   -0.41666666666667    0.47916666666667    0.06250000000000            96
   -0.43750000000000    0.06250000000000    0.06250000000000            96
   -0.37500000000000    0.43750000000000    0.06250000000000            96
   -0.39583333333333    0.06250000000000    0.06250000000000            96
   -0.33333333333333    0.39583333333333    0.06250000000000            96
   -0.35416666666667    0.06250000000000    0.06250000000000            96
   -0.29166666666667    0.35416666666667    0.06250000000000            96
   -0.31250000000000    0.06250000000000    0.06250000000000            96
   -0.25000000000000    0.31250000000000    0.06250000000000            96
   -0.27083333333333    0.06250000000000    0.06250000000000            96
   -0.20833333333333    0.27083333333333    0.06250000000000            96
   -0.22916666666667    0.06250000000000    0.06250000000000            96
   -0.16666666666667    0.22916666666667    0.06250000000000            96
   -0.18750000000000    0.06250000000000    0.06250000000000            96
   -0.12500000000000    0.18750000000000    0.06250000000000            96
   -0.14583333333333    0.06250000000000    0.06250000000000            96
   -0.08333333333333    0.14583333333333    0.06250000000000            96
   -0.10416666666667    0.06250000000000    0.06250000000000            96
   -0.04166666666667    0.10416666666667    0.06250000000000            96
   -0.06250000000000    0.06250000000000    0.06250000000000            48
    0.00000000000000    0.06250000000000    0.06250000000000            48
    0.10416666666667    0.10416666666667    0.06250000000000            96
    0.14583333333333    0.10416666666667    0.06250000000000            96
    0.25000000000000   -0.14583333333333    0.06250000000000            96
    0.18750000000000    0.10416666666667    0.06250000000000            96
    0.29166666666667   -0.18750000000000    0.06250000000000            96
    0.22916666666667    0.10416666666667    0.06250000000000            96
    0.33333333333333   -0.22916666666667    0.06250000000000            96
    0.27083333333333    0.10416666666667    0.06250000000000            96
    0.37500000000000   -0.27083333333333    0.06250000000000            96