       N       E                     dE             d eps       ncg     rms          rms(c)
DAV:   1     0.654309122059E+03    0.65431E+03   -0.39850E+04514720   0.118E+03
DAV:   2    -0.308525161000E+02   -0.68516E+03   -0.63843E+03686180   0.239E+02
DAV:   3    -0.141583764799E+03   -0.11073E+03   -0.10960E+03615180   0.994E+01
DAV:   4    -0.144837835022E+03   -0.32541E+01   -0.32435E+01613060   0.196E+01
DAV:   5    -0.144932247961E+03   -0.94413E-01   -0.94339E-01675290   0.310E+00
DAV:   6    -0.144935149434E+03   -0.29015E-02   -0.29004E-02656790   0.535E-01
DAV:   7    -0.144935300077E+03   -0.15064E-03   -0.15063E-03717080   0.107E-01
DAV:   8    -0.144935304812E+03   -0.47353E-05   -0.47351E-05527240   0.185E-02
   1 F= -.14493530E+03 E0= -.14493286E+03  d E =-.489862E-02
