       N       E                     dE             d eps       ncg     rms          rms(c)
DAV:   1     0.494350498877E+03    0.49435E+03   -0.44969E+04  6296   0.136E+03
DAV:   2    -0.106226509573E+03   -0.60058E+03   -0.57516E+03  8000   0.263E+02
DAV:   3    -0.156172857317E+03   -0.49946E+02   -0.49663E+02  7400   0.821E+01
DAV:   4    -0.156756472404E+03   -0.58362E+00   -0.58255E+00  7384   0.969E+00
DAV:   5    -0.156764714295E+03   -0.82419E-02   -0.82384E-02  7520   0.113E+00    0.229E+01
DAV:   6    -0.141442144509E+03    0.15323E+02   -0.85804E+01  7456   0.319E+01    0.779E+00
DAV:   7    -0.141313147549E+03    0.12900E+00   -0.19075E+00  7048   0.607E+00    0.475E+00
DAV:   8    -0.141227381968E+03    0.85766E-01   -0.67227E-01  7432   0.455E+00    0.120E+00
DAV:   9    -0.141200305541E+03    0.27076E-01   -0.11936E-01  7264   0.160E+00    0.577E-01
DAV:  10    -0.141202964712E+03   -0.26592E-02   -0.91379E-02  7160   0.123E+00    0.422E-01
DAV:  11    -0.141200115173E+03    0.28495E-02   -0.92572E-03  7576   0.481E-01    0.240E-01
DAV:  12    -0.141199501390E+03    0.61378E-03   -0.14218E-02  7248   0.499E-01    0.161E-01
DAV:  13    -0.141198716309E+03    0.78508E-03   -0.15484E-03  8640   0.256E-01    0.101E-01
DAV:  14    -0.141198164406E+03    0.55190E-03   -0.16868E-03  8160   0.245E-01    0.321E-02
DAV:  15    -0.141197483266E+03    0.68114E-03   -0.45257E-04 10232   0.263E-01    0.306E-02
DAV:  16    -0.141197069866E+03    0.41340E-03   -0.46288E-04  7472   0.203E-01    0.251E-02
DAV:  17    -0.141196580311E+03    0.48956E-03   -0.52693E-04  9944   0.361E-01    0.393E-02
DAV:  18    -0.141196404852E+03    0.17546E-03   -0.52651E-04  7992   0.229E-01    0.324E-02
DAV:  19    -0.141196284406E+03    0.12045E-03   -0.84986E-04  8168   0.280E-01    0.406E-02
DAV:  20    -0.141196163243E+03    0.12116E-03   -0.27130E-04  9112   0.228E-01    0.267E-02
DAV:  21    -0.141196153696E+03    0.95479E-05   -0.35364E-04  7280   0.136E-01    0.190E-02
DAV:  22    -0.141196138048E+03    0.15647E-04   -0.80380E-05  7080   0.733E-02    0.119E-02
DAV:  23    -0.141196131458E+03    0.65905E-05   -0.21429E-05  5304   0.670E-02
   1 F= -.14119613E+03 E0= -.14119381E+03  d E =-.141196E+03
       N       E                     dE             d eps       ncg     rms          rms(c)
DAV:   1    -0.141197293735E+03   -0.11557E-02   -0.33668E-02  6720   0.802E-01    0.443E-02
DAV:   2    -0.141197317251E+03   -0.23515E-04   -0.16995E-03  7368   0.182E-01    0.387E-02
DAV:   3    -0.141197289428E+03    0.27822E-04   -0.14939E-04  7296   0.526E-02    0.297E-02
DAV:   4    -0.141197263344E+03    0.26084E-04   -0.67521E-05  7104   0.391E-02    0.139E-02
DAV:   5    -0.141197236972E+03    0.26372E-04   -0.31183E-05  6696   0.430E-02    0.868E-03
DAV:   6    -0.141197223609E+03    0.13363E-04   -0.15428E-05  5272   0.352E-02    0.631E-03
DAV:   7    -0.141197214070E+03    0.95392E-05   -0.15372E-05  5088   0.313E-02
   2 F= -.14119721E+03 E0= -.14119491E+03  d E =-.108261E-02
       N       E                     dE             d eps       ncg     rms          rms(c)
DAV:   1    -0.141197277811E+03   -0.54202E-04   -0.47281E-03  6992   0.306E-01    0.148E-02
DAV:   2    -0.141197276943E+03    0.86740E-06   -0.23917E-04  7376   0.653E-02    0.145E-02
DAV:   3    -0.141197267381E+03    0.95626E-05   -0.15608E-05  5448   0.196E-02    0.101E-02
DAV:   4    -0.141197252000E+03    0.15381E-04   -0.18773E-05  5440   0.307E-02    0.517E-03
DAV:   5    -0.141197242716E+03    0.92838E-05   -0.61776E-06  4552   0.246E-02    0.495E-03
DAV:   6    -0.141197223832E+03    0.18884E-04   -0.71231E-06  4864   0.548E-02    0.422E-03
DAV:   7    -0.141197211204E+03    0.12628E-04   -0.15854E-05  5136   0.484E-02    0.537E-03
DAV:   8    -0.141197200576E+03    0.10629E-04   -0.10926E-05  5016   0.459E-02    0.362E-03
DAV:   9    -0.141197183701E+03    0.16875E-04   -0.12568E-05  5504   0.103E-01    0.393E-03
DAV:  10    -0.141197182735E+03    0.96547E-06   -0.42076E-05  6448   0.591E-02
   3 F= -.14119718E+03 E0= -.14119489E+03  d E =-.105128E-02
       N       E                     dE             d eps       ncg     rms          rms(c)
DAV:   1    -0.141197202839E+03   -0.19138E-04   -0.50057E-04  6872   0.953E-02    0.643E-03
DAV:   2    -0.141197202037E+03    0.80214E-06   -0.18654E-05  5280   0.205E-02    0.460E-03
DAV:   3    -0.141197201298E+03    0.73801E-06   -0.33311E-06  4176   0.987E-03    0.291E-03
DAV:   4    -0.141197200672E+03    0.62643E-06   -0.10804E-06  4088   0.749E-03    0.144E-03
DAV:   5    -0.141197200191E+03    0.48147E-06   -0.42431E-07  4208   0.745E-03    0.822E-04
DAV:   6    -0.141197199779E+03    0.41184E-06   -0.29868E-07  4152   0.885E-03
   4 F= -.14119720E+03 E0= -.14119490E+03  d E =-.106832E-02
       N       E                     dE             d eps       ncg     rms          rms(c)
DAV:   1    -0.141197506982E+03   -0.30679E-03   -0.12471E-01  6272   0.151E+00    0.502E-02
DAV:   2    -0.141197802509E+03   -0.29553E-03   -0.32862E-03  7224   0.212E-01    0.311E-02
DAV:   3    -0.141197781524E+03    0.20985E-04   -0.29970E-05  6488   0.325E-02    0.205E-02
DAV:   4    -0.141197765400E+03    0.16124E-04   -0.32723E-05  6680   0.330E-02    0.762E-03
DAV:   5    -0.141197760838E+03    0.45617E-05   -0.11220E-05  4808   0.256E-02    0.421E-03
DAV:   6    -0.141197754834E+03    0.60037E-05   -0.32922E-06  4424   0.287E-02
   5 F= -.14119775E+03 E0= -.14119546E+03  d E =-.555056E-03
       N       E                     dE             d eps       ncg     rms          rms(c)
DAV:   1    -0.141197340763E+03    0.42008E-03   -0.36210E-01  6272   0.257E+00    0.859E-02
DAV:   2    -0.141198201317E+03   -0.86055E-03   -0.96453E-03  7232   0.364E-01    0.538E-02
DAV:   3    -0.141198134947E+03    0.66370E-04   -0.96541E-05  7424   0.572E-02    0.356E-02
DAV:   4    -0.141198077029E+03    0.57918E-04   -0.92426E-05  7336   0.571E-02    0.139E-02
DAV:   5    -0.141198055653E+03    0.21376E-04   -0.32819E-05  6136   0.481E-02    0.786E-03
DAV:   6    -0.141198024826E+03    0.30827E-04   -0.10561E-05  4880   0.625E-02    0.532E-03
DAV:   7    -0.141197993035E+03    0.31791E-04   -0.16350E-05  5360   0.693E-02    0.483E-03
DAV:   8    -0.141197925866E+03    0.67170E-04   -0.38802E-05  6688   0.168E-01    0.647E-03
DAV:   9    -0.141197894463E+03    0.31403E-04   -0.11348E-04  8528   0.155E-01    0.703E-03
DAV:  10    -0.141197901105E+03   -0.66427E-05   -0.12491E-04  6720   0.534E-02    0.737E-03
DAV:  11    -0.141197901072E+03    0.33499E-07   -0.15243E-05  4840   0.178E-02
   6 F= -.14119790E+03 E0= -.14119561E+03  d E =-.701293E-03
       N       E                     dE             d eps       ncg     rms          rms(c)
DAV:   1    -0.141197893879E+03    0.72261E-05   -0.26048E-02  6592   0.687E-01    0.224E-02
DAV:   2    -0.141197954578E+03   -0.60699E-04   -0.68094E-04  7256   0.950E-02    0.137E-02
DAV:   3    -0.141197950247E+03    0.43308E-05   -0.56927E-06  4504   0.156E-02    0.902E-03
DAV:   4    -0.141197946393E+03    0.38538E-05   -0.50112E-06  4376   0.198E-02    0.319E-03
DAV:   5    -0.141197944717E+03    0.16763E-05   -0.42439E-06  4368   0.199E-02    0.195E-03
DAV:   6    -0.141197944246E+03    0.47117E-06   -0.33451E-06  4136   0.117E-02
   7 F= -.14119794E+03 E0= -.14119565E+03  d E =-.744467E-03
       N       E                     dE             d eps       ncg     rms          rms(c)
DAV:   1    -0.141198158357E+03   -0.21364E-03   -0.73380E-02  6272   0.116E+00    0.378E-02
DAV:   2    -0.141198324225E+03   -0.16587E-03   -0.19118E-03  7192   0.163E-01    0.229E-02
DAV:   3    -0.141198311969E+03    0.12256E-04   -0.25998E-05  6280   0.311E-02    0.162E-02
DAV:   4    -0.141198302277E+03    0.96914E-05   -0.16330E-05  5160   0.316E-02    0.695E-03
DAV:   5    -0.141198298339E+03    0.39387E-05   -0.11598E-05  4544   0.290E-02    0.387E-03
DAV:   6    -0.141198296382E+03    0.19564E-05   -0.77890E-06  4264   0.227E-02
   8 F= -.14119830E+03 E0= -.14119601E+03  d E =-.352136E-03
       N       E                     dE             d eps       ncg     rms          rms(c)
DAV:   1    -0.141197567442E+03    0.73090E-03   -0.55626E-01  6280   0.319E+00    0.106E-01
DAV:   2    -0.141198842384E+03   -0.12749E-02   -0.14572E-02  7192   0.448E-01    0.622E-02
DAV:   3    -0.141198751685E+03    0.90700E-04   -0.18707E-04  7424   0.831E-02    0.431E-02
DAV:   4    -0.141198687763E+03    0.63922E-04   -0.12314E-04  7432   0.811E-02    0.180E-02
DAV:   5    -0.141198665916E+03    0.21847E-04   -0.69133E-05  7312   0.661E-02    0.890E-03
DAV:   6    -0.141198653893E+03    0.12023E-04   -0.33873E-05  6336   0.513E-02    0.652E-03
DAV:   7    -0.141198648276E+03    0.56172E-05   -0.16917E-05  4592   0.297E-02
   9 F= -.14119865E+03 E0= -.14119637E+03  d E =-.704030E-03
       N       E                     dE             d eps       ncg     rms          rms(c)
DAV:   1    -0.141198940063E+03   -0.28617E-03   -0.37686E-02  6424   0.842E-01    0.252E-02
DAV:   2    -0.141198992096E+03   -0.52034E-04   -0.76313E-04  7304   0.115E-01    0.154E-02
DAV:   3    -0.141198979981E+03    0.12115E-04   -0.11011E-05  4872   0.259E-02    0.109E-02
DAV:   4    -0.141198957970E+03    0.22011E-04   -0.16841E-05  5240   0.527E-02    0.443E-03
DAV:   5    -0.141198951261E+03    0.67088E-05   -0.24344E-05  5384   0.323E-02    0.650E-03
DAV:   6    -0.141198947170E+03    0.40913E-05   -0.77548E-06  4232   0.170E-02
  10 F= -.14119895E+03 E0= -.14119667E+03  d E =-.298894E-03
       N       E                     dE             d eps       ncg     rms          rms(c)
DAV:   1    -0.141198947316E+03    0.39453E-05   -0.25643E-01  6304   0.220E+00    0.651E-02
DAV:   2    -0.141199362456E+03   -0.41514E-03   -0.53869E-03  7336   0.302E-01    0.410E-02
DAV:   3    -0.141199307678E+03    0.54778E-04   -0.79475E-05  7496   0.524E-02    0.278E-02
DAV:   4    -0.141199247194E+03    0.60483E-04   -0.99659E-05  7288   0.695E-02    0.111E-02
DAV:   5    -0.141199232313E+03    0.14881E-04   -0.47900E-05  7160   0.403E-02    0.106E-02
DAV:   6    -0.141199209201E+03    0.23112E-04   -0.12768E-05  4608   0.397E-02    0.565E-03
DAV:   7    -0.141199176007E+03    0.33194E-04   -0.85824E-06  4912   0.593E-02    0.615E-03
DAV:   8    -0.141199132375E+03    0.43632E-04   -0.18372E-05  5760   0.892E-02    0.478E-03
DAV:   9    -0.141199065854E+03    0.66520E-04   -0.90716E-05  8704   0.202E-01    0.683E-03
DAV:  10    -0.141199059519E+03    0.63360E-05   -0.13526E-04  7464   0.110E-01    0.628E-03
DAV:  11    -0.141199067259E+03   -0.77406E-05   -0.93109E-05  6408   0.337E-02
  11 F= -.14119907E+03 E0= -.14119681E+03  d E =-.418983E-03
       N       E                     dE             d eps       ncg     rms          rms(c)
DAV:   1    -0.141199084403E+03   -0.24885E-04   -0.15881E-02  6680   0.549E-01    0.170E-02
DAV:   2    -0.141199110007E+03   -0.25604E-04   -0.33470E-04  7328   0.755E-02    0.104E-02
DAV:   3    -0.141199106569E+03    0.34383E-05   -0.49418E-06  4448   0.143E-02    0.722E-03
DAV:   4    -0.141199103541E+03    0.30283E-05   -0.86880E-06  4640   0.213E-02    0.270E-03
DAV:   5    -0.141199103445E+03    0.95764E-07   -0.58179E-06  4120   0.117E-02    0.366E-03
DAV:   6    -0.141199103482E+03   -0.36902E-07   -0.97040E-07  3768   0.398E-03
  12 F= -.14119910E+03 E0= -.14119684E+03  d E =-.455206E-03
       N       E                     dE             d eps       ncg     rms          rms(c)
DAV:   1    -0.141199267258E+03   -0.16381E-03   -0.25304E-02  6424   0.693E-01    0.194E-02
DAV:   2    -0.141199311623E+03   -0.44365E-04   -0.51712E-04  7272   0.936E-02    0.120E-02
DAV:   3    -0.141199307090E+03    0.45333E-05   -0.51485E-06  4304   0.156E-02    0.811E-03
DAV:   4    -0.141199302264E+03    0.48265E-05   -0.66723E-06  4520   0.222E-02    0.267E-03
DAV:   5    -0.141199300993E+03    0.12705E-05   -0.59009E-06  4192   0.165E-02    0.240E-03
DAV:   6    -0.141199299853E+03    0.11404E-05   -0.18119E-06  4216   0.117E-02
  13 F= -.14119930E+03 E0= -.14119705E+03  d E =-.196371E-03
       N       E                     dE             d eps       ncg     rms          rms(c)
DAV:   1    -0.141199343325E+03   -0.42332E-04   -0.22737E-01  6312   0.208E+00    0.593E-02
DAV:   2    -0.141199755417E+03   -0.41209E-03   -0.47314E-03  7272   0.284E-01    0.353E-02
DAV:   3    -0.141199720272E+03    0.35145E-04   -0.53334E-05  7304   0.429E-02    0.241E-02
DAV:   4    -0.141199688519E+03    0.31753E-04   -0.66326E-05  7208   0.538E-02    0.881E-03
DAV:   5    -0.141199682580E+03    0.59394E-05   -0.33169E-05  6336   0.363E-02    0.745E-03
DAV:   6    -0.141199677327E+03    0.52528E-05   -0.13711E-05  4360   0.277E-02
  14 F= -.14119968E+03 E0= -.14119744E+03  d E =-.573845E-03
       N       E                     dE             d eps       ncg     rms          rms(c)
DAV:   1    -0.141198141488E+03    0.15411E-02   -0.90892E-01  6304   0.416E+00    0.119E-01
DAV:   2    -0.141199788046E+03   -0.16466E-02   -0.18931E-02  7272   0.567E-01    0.706E-02
DAV:   3    -0.141199645398E+03    0.14265E-03   -0.21649E-04  7440   0.872E-02    0.481E-02
DAV:   4    -0.141199513483E+03    0.13192E-03   -0.25371E-04  7320   0.108E-01    0.180E-02
DAV:   5    -0.141199484664E+03    0.28819E-04   -0.13545E-04  7288   0.765E-02    0.150E-02
DAV:   6    -0.141199460308E+03    0.24357E-04   -0.67447E-05  6904   0.605E-02    0.938E-03
DAV:   7    -0.141199418759E+03    0.41548E-04   -0.80281E-06  4584   0.690E-02    0.912E-03
DAV:   8    -0.141199362430E+03    0.56330E-04   -0.27181E-05  6272   0.106E-01    0.130E-02
DAV:   9    -0.141199283855E+03    0.78574E-04   -0.75475E-05  8408   0.183E-01    0.900E-03
DAV:  10    -0.141199246339E+03    0.37516E-04   -0.14374E-04  8480   0.181E-01    0.892E-03
DAV:  11    -0.141199256703E+03   -0.10364E-04   -0.15826E-04  6880   0.448E-02    0.112E-02
DAV:  12    -0.141199254698E+03    0.20051E-05   -0.73859E-06  4288   0.124E-02
  15 F= -.14119925E+03 E0= -.14119705E+03  d E =-.151216E-03
       N       E                     dE             d eps       ncg     rms          rms(c)
DAV:   1    -0.141199093723E+03    0.16298E-03   -0.38007E-01  6392   0.269E+00    0.788E-02
DAV:   2    -0.141199793434E+03   -0.69971E-03   -0.79665E-03  7272   0.363E-01    0.445E-02
DAV:   3    -0.141199738679E+03    0.54755E-04   -0.85363E-05  7424   0.537E-02    0.302E-02
DAV:   4    -0.141199695765E+03    0.42914E-04   -0.11229E-04  7296   0.688E-02    0.107E-02
DAV:   5    -0.141199692109E+03    0.36555E-05   -0.56386E-05  6904   0.419E-02    0.105E-02
DAV:   6    -0.141199689107E+03    0.30020E-05   -0.13675E-05  4248   0.202E-02
  16 F= -.14119969E+03 E0= -.14119746E+03  d E =-.585625E-03
       N       E                     dE             d eps       ncg     rms          rms(c)
DAV:   1    -0.141199685850E+03    0.62593E-05   -0.17427E-02  6448   0.578E-01    0.184E-02
DAV:   2    -0.141199714065E+03   -0.28215E-04   -0.38931E-04  7264   0.861E-02    0.105E-02
DAV:   3    -0.141199708588E+03    0.54777E-05   -0.10483E-05  4320   0.215E-02    0.743E-03
DAV:   4    -0.141199701333E+03    0.72550E-05   -0.34458E-06  4392   0.215E-02    0.386E-03
DAV:   5    -0.141199692822E+03    0.85107E-05   -0.41249E-06  4480   0.339E-02    0.309E-03
DAV:   6    -0.141199686243E+03    0.65784E-05   -0.59777E-06  4544   0.361E-02
  17 F= -.14119969E+03 E0= -.14119745E+03  d E =-.582761E-03
       N       E                     dE             d eps       ncg     rms          rms(c)
DAV:   1    -0.141199654106E+03    0.38716E-04   -0.77243E-03  6944   0.397E-01    0.124E-02
DAV:   2    -0.141199680083E+03   -0.25977E-04   -0.29685E-04  7264   0.710E-02    0.149E-02
DAV:   3    -0.141199676247E+03    0.38365E-05   -0.47618E-06  4256   0.117E-02    0.108E-02
DAV:   4    -0.141199671814E+03    0.44322E-05   -0.23331E-05  5352   0.199E-02    0.421E-03
DAV:   5    -0.141199671165E+03    0.64915E-06   -0.26787E-06  4144   0.105E-02    0.234E-03
DAV:   6    -0.141199669716E+03    0.14497E-05   -0.33584E-06  4216   0.175E-02
  18 F= -.14119967E+03 E0= -.14119743E+03  d E =-.566233E-03
       N       E                     dE             d eps       ncg     rms          rms(c)
DAV:   1    -0.141199807012E+03   -0.13585E-03   -0.13968E-02  6720   0.532E-01    0.171E-02
DAV:   2    -0.141199836845E+03   -0.29833E-04   -0.37677E-04  7320   0.802E-02    0.108E-02
DAV:   3    -0.141199834145E+03    0.26994E-05   -0.83674E-06  4256   0.135E-02    0.785E-03
DAV:   4    -0.141199832003E+03    0.21428E-05   -0.42275E-06  4248   0.104E-02    0.334E-03
DAV:   5    -0.141199831149E+03    0.85385E-06   -0.19686E-06  4264   0.104E-02    0.199E-03
DAV:   6    -0.141199830720E+03    0.42839E-06   -0.11252E-06  4104   0.102E-02
  19 F= -.14119983E+03 E0= -.14119760E+03  d E =-.161005E-03
       N       E                     dE             d eps       ncg     rms          rms(c)
DAV:   1    -0.141199908787E+03   -0.77639E-04   -0.12516E-01  6584   0.159E+00    0.500E-02
DAV:   2    -0.141200161729E+03   -0.25294E-03   -0.31932E-03  7328   0.231E-01    0.291E-02
DAV:   3    -0.141200141160E+03    0.20570E-04   -0.74248E-05  7448   0.392E-02    0.218E-02
DAV:   4    -0.141200127928E+03    0.13232E-04   -0.24720E-05  5416   0.246E-02    0.108E-02
DAV:   5    -0.141200119833E+03    0.80946E-05   -0.17756E-05  5584   0.274E-02    0.531E-03
DAV:   6    -0.141200118553E+03    0.12798E-05   -0.98710E-06  4320   0.182E-02
  20 F= -.14120012E+03 E0= -.14119789E+03  d E =-.448838E-03
       N       E                     dE             d eps       ncg     rms          rms(c)
DAV:   1    -0.141200108558E+03    0.11275E-04   -0.20645E-02  6640   0.646E-01    0.207E-02
DAV:   2    -0.141200150427E+03   -0.41868E-04   -0.53654E-04  7336   0.937E-02    0.121E-02
DAV:   3    -0.141200145469E+03    0.49580E-05   -0.86285E-06  4544   0.151E-02    0.874E-03
DAV:   4    -0.141200140826E+03    0.46428E-05   -0.73823E-06  4528   0.172E-02    0.343E-03
DAV:   5    -0.141200138722E+03    0.21042E-05   -0.40835E-06  4320   0.148E-02    0.224E-03
DAV:   6    -0.141200136911E+03    0.18102E-05   -0.18090E-06  4320   0.131E-02
  21 F= -.14120014E+03 E0= -.14119792E+03  d E =-.467196E-03
       N       E                     dE             d eps       ncg     rms          rms(c)
DAV:   1    -0.141200245498E+03   -0.10678E-03   -0.32284E-02  6304   0.787E-01    0.232E-02
DAV:   2    -0.141200305298E+03   -0.59800E-04   -0.69204E-04  7240   0.108E-01    0.139E-02
DAV:   3    -0.141200300250E+03    0.50476E-05   -0.82743E-06  4496   0.175E-02    0.966E-03
DAV:   4    -0.141200295588E+03    0.46622E-05   -0.11402E-05  4576   0.229E-02    0.323E-03
DAV:   5    -0.141200295040E+03    0.54738E-06   -0.64291E-06  4216   0.138E-02    0.330E-03
DAV:   6    -0.141200294847E+03    0.19336E-06   -0.16463E-06  4080   0.580E-03
  22 F= -.14120029E+03 E0= -.14119808E+03  d E =-.157936E-03
       N       E                     dE             d eps       ncg     rms          rms(c)
DAV:   1    -0.141200082232E+03    0.21281E-03   -0.24039E-01  6296   0.215E+00    0.637E-02
DAV:   2    -0.141200531642E+03   -0.44941E-03   -0.51680E-03  7240   0.295E-01    0.380E-02
DAV:   3    -0.141200496621E+03    0.35021E-04   -0.61193E-05  7368   0.449E-02    0.265E-02
DAV:   4    -0.141200469533E+03    0.27089E-04   -0.94805E-05  6976   0.580E-02    0.985E-03
DAV:   5    -0.141200468336E+03    0.11967E-05   -0.35037E-05  6416   0.298E-02    0.944E-03
DAV:   6    -0.141200466698E+03    0.16385E-05   -0.87327E-06  4192   0.142E-02
  23 F= -.14120047E+03 E0= -.14119827E+03  d E =-.329786E-03
       N       E                     dE             d eps       ncg     rms          rms(c)
DAV:   1    -0.141200592549E+03   -0.12421E-03   -0.41525E-02  6272   0.884E-01    0.263E-02
DAV:   2    -0.141200668018E+03   -0.75469E-04   -0.84354E-04  7328   0.118E-01    0.147E-02
DAV:   3    -0.141200662757E+03    0.52614E-05   -0.72575E-06  4440   0.173E-02    0.101E-02
DAV:   4    -0.141200657974E+03    0.47831E-05   -0.14740E-05  4632   0.307E-02    0.274E-03
DAV:   5    -0.141200658713E+03   -0.73952E-06   -0.12415E-05  4096   0.154E-02    0.460E-03
DAV:   6    -0.141200658745E+03   -0.31479E-07   -0.13766E-06  3776   0.465E-03
  24 F= -.14120066E+03 E0= -.14119847E+03  d E =-.192047E-03
       N       E                     dE             d eps       ncg     rms          rms(c)
DAV:   1    -0.141200325255E+03    0.33346E-03   -0.37477E-01  6272   0.266E+00    0.794E-02
DAV:   2    -0.141201007392E+03   -0.68214E-03   -0.77115E-03  7344   0.355E-01    0.434E-02
DAV:   3    -0.141200958465E+03    0.48927E-04   -0.72665E-05  7352   0.485E-02    0.299E-02
DAV:   4    -0.141200912093E+03    0.46371E-04   -0.15119E-04  7400   0.888E-02    0.993E-03
DAV:   5    -0.141200914627E+03   -0.25338E-05   -0.83363E-05  7000   0.389E-02    0.156E-02
DAV:   6    -0.141200911769E+03    0.28583E-05   -0.44010E-06  4224   0.101E-02
  25 F= -.14120091E+03 E0= -.14119874E+03  d E =-.445071E-03
       N       E                     dE             d eps       ncg     rms          rms(c)
DAV:   1    -0.141200949323E+03   -0.34695E-04   -0.95085E-02  6400   0.140E+00    0.450E-02
DAV:   2    -0.141201157131E+03   -0.20781E-03   -0.23938E-03  7248   0.205E-01    0.241E-02
DAV:   3    -0.141201145654E+03    0.11476E-04   -0.50953E-05  7144   0.344E-02    0.179E-02
DAV:   4    -0.141201136302E+03    0.93525E-05   -0.22113E-05  4896   0.233E-02    0.799E-03
DAV:   5    -0.141201130639E+03    0.56627E-05   -0.70496E-06  4536   0.240E-02    0.611E-03
DAV:   6    -0.141201126347E+03    0.42917E-05   -0.55623E-06  4352   0.271E-02
  26 F= -.14120113E+03 E0= -.14119897E+03  d E =-.214578E-03
       N       E                     dE             d eps       ncg     rms          rms(c)
DAV:   1    -0.141200968546E+03    0.16209E-03   -0.12113E-01  6424   0.158E+00    0.507E-02
DAV:   2    -0.141201230059E+03   -0.26151E-03   -0.30222E-03  7248   0.230E-01    0.268E-02
DAV:   3    -0.141201214700E+03    0.15359E-04   -0.60707E-05  7320   0.389E-02    0.200E-02
DAV:   4    -0.141201201607E+03    0.13093E-04   -0.31512E-05  6272   0.295E-02    0.880E-03
DAV:   5    -0.141201194139E+03    0.74681E-05   -0.83369E-06  4552   0.306E-02    0.716E-03
DAV:   6    -0.141201189087E+03    0.50514E-05   -0.91174E-06  4520   0.320E-02
  27 F= -.14120119E+03 E0= -.14119904E+03  d E =-.277318E-03
       N       E                     dE             d eps       ncg     rms          rms(c)
DAV:   1    -0.141200893949E+03    0.30019E-03   -0.25607E-01  6512   0.227E+00    0.684E-02
DAV:   2    -0.141201439853E+03   -0.54590E-03   -0.59385E-03  7232   0.317E-01    0.365E-02
DAV:   3    -0.141201408395E+03    0.31459E-04   -0.59834E-05  7360   0.392E-02    0.249E-02
DAV:   4    -0.141201384930E+03    0.23464E-04   -0.63637E-05  7096   0.458E-02    0.851E-03
DAV:   5    -0.141201383555E+03    0.13752E-05   -0.24918E-05  5504   0.272E-02    0.745E-03
DAV:   6    -0.141201382028E+03    0.15271E-05   -0.10631E-05  4312   0.200E-02
  28 F= -.14120138E+03 E0= -.14119925E+03  d E =-.192941E-03
       N       E                     dE             d eps       ncg     rms          rms(c)
DAV:   1    -0.141201116463E+03    0.26709E-03   -0.14938E-01  6456   0.174E+00    0.505E-02
DAV:   2    -0.141201429912E+03   -0.31345E-03   -0.34306E-03  7256   0.242E-01    0.283E-02
DAV:   3    -0.141201408105E+03    0.21807E-04   -0.29551E-05  5896   0.304E-02    0.194E-02
DAV:   4    -0.141201385736E+03    0.22368E-04   -0.39583E-05  6664   0.446E-02    0.581E-03
DAV:   5    -0.141201382176E+03    0.35604E-05   -0.22947E-05  5136   0.277E-02    0.524E-03
DAV:   6    -0.141201377760E+03    0.44161E-05   -0.62065E-06  4400   0.200E-02
  29 F= -.14120138E+03 E0= -.14119925E+03  d E =-.188673E-03
       N       E                     dE             d eps       ncg     rms          rms(c)
DAV:   1    -0.141201092259E+03    0.28992E-03   -0.23749E-01  6416   0.218E+00    0.624E-02
DAV:   2    -0.141201568000E+03   -0.47574E-03   -0.52261E-03  7232   0.302E-01    0.363E-02
DAV:   3    -0.141201531418E+03    0.36582E-04   -0.60334E-05  7224   0.456E-02    0.248E-02
DAV:   4    -0.141201488673E+03    0.42745E-04   -0.41679E-05  6792   0.553E-02    0.105E-02
DAV:   5    -0.141201471997E+03    0.16677E-04   -0.40548E-05  6880   0.502E-02    0.822E-03
DAV:   6    -0.141201464688E+03    0.73091E-05   -0.26579E-05  5944   0.318E-02
  30 F= -.14120146E+03 E0= -.14119935E+03  d E =-.869276E-04
       N       E                     dE             d eps       ncg     rms          rms(c)
DAV:   1    -0.141201435796E+03    0.36201E-04   -0.32019E-03  6864   0.258E-01    0.920E-03
DAV:   2    -0.141201436293E+03   -0.49757E-06   -0.99047E-05  6976   0.507E-02    0.706E-03
DAV:   3    -0.141201431789E+03    0.45045E-05   -0.76214E-06  4240   0.156E-02    0.584E-03
DAV:   4    -0.141201421918E+03    0.98709E-05   -0.15852E-06  4280   0.189E-02    0.388E-03
DAV:   5    -0.141201394847E+03    0.27071E-04   -0.15751E-05  5112   0.672E-02    0.805E-03
DAV:   6    -0.141201372789E+03    0.22057E-04   -0.36024E-05  6400   0.892E-02    0.449E-03
DAV:   7    -0.141201354031E+03    0.18758E-04   -0.52551E-05  7656   0.145E-01    0.127E-02
DAV:   8    -0.141201349579E+03    0.44521E-05   -0.75606E-05  6648   0.498E-02
  31 F= -.14120135E+03 E0= -.14119923E+03  d E =0.281806E-04
       N       E                     dE             d eps       ncg     rms          rms(c)
DAV:   1    -0.141201364817E+03   -0.10786E-04   -0.24378E-03  6912   0.223E-01    0.964E-03
DAV:   2    -0.141201369438E+03   -0.46204E-05   -0.65967E-05  7032   0.347E-02    0.745E-03
DAV:   3    -0.141201368323E+03    0.11152E-05   -0.45754E-06  4136   0.924E-03    0.341E-03
DAV:   4    -0.141201367828E+03    0.49469E-06   -0.10349E-06  4048   0.522E-03    0.156E-03
DAV:   5    -0.141201367426E+03    0.40159E-06   -0.45970E-07  4120   0.609E-03    0.914E-04
DAV:   6    -0.141201367147E+03    0.27969E-06   -0.42092E-07  4056   0.826E-03
  32 F= -.14120137E+03 E0= -.14119925E+03  d E =0.106133E-04
       N       E                     dE             d eps       ncg     rms          rms(c)
DAV:   1    -0.141201369253E+03   -0.18263E-05   -0.39702E-05  6064   0.286E-02    0.121E-03
DAV:   2    -0.141201369340E+03   -0.87466E-07   -0.12602E-06  3584   0.499E-03    0.727E-04
DAV:   3    -0.141201369326E+03    0.14185E-07   -0.87065E-08  3520   0.141E-03    0.476E-04
DAV:   4    -0.141201369297E+03    0.29021E-07   -0.37312E-08  3472   0.146E-03    0.222E-04
DAV:   5    -0.141201369289E+03    0.76916E-08   -0.14420E-08  3432   0.837E-04    0.201E-04
DAV:   6    -0.141201369269E+03    0.20385E-07   -0.13923E-08  3424   0.247E-03
  33 F= -.14120137E+03 E0= -.14119925E+03  d E =0.849112E-05
       N       E                     dE             d eps       ncg     rms          rms(c)
DAV:   1    -0.141201369564E+03   -0.27442E-06   -0.74363E-07  3368   0.500E-03    0.278E-04
DAV:   2    -0.141201369574E+03   -0.10045E-07   -0.14947E-07  3328   0.180E-03    0.339E-04
DAV:   3    -0.141201369574E+03   -0.27285E-11   -0.14885E-08  3280   0.520E-04    0.287E-04
DAV:   4    -0.141201369572E+03    0.21437E-08   -0.42804E-09  3256   0.283E-04    0.149E-04
DAV:   5    -0.141201369570E+03    0.12124E-08   -0.75367E-09  3232   0.402E-04    0.127E-04
DAV:   6    -0.141201369570E+03    0.46020E-09   -0.17334E-09  3232   0.409E-04
  34 F= -.14120137E+03 E0= -.14119925E+03  d E =0.819009E-05
       N       E                     dE             d eps       ncg     rms          rms(c)
DAV:   1    -0.141201369619E+03   -0.48836E-07   -0.28046E-08  3256   0.136E-03    0.175E-04
DAV:   2    -0.141201369619E+03    0.18190E-09   -0.10177E-08  3232   0.444E-04    0.193E-04
DAV:   3    -0.141201369619E+03    0.14370E-09   -0.13965E-09  3208   0.133E-04    0.224E-04
DAV:   4    -0.141201369616E+03    0.23792E-08   -0.41130E-09  3232   0.315E-04    0.984E-05
DAV:   5    -0.141201369616E+03    0.35561E-09   -0.47690E-10  3216   0.163E-04    0.935E-05
DAV:   6    -0.141201369615E+03    0.10486E-08   -0.98861E-10  3208   0.487E-04
  35 F= -.14120137E+03 E0= -.14119925E+03  d E =0.814490E-05
       N       E                     dE             d eps       ncg     rms          rms(c)
DAV:   1    -0.141201369621E+03   -0.52014E-08   -0.17381E-09  3208   0.357E-04    0.607E-05
DAV:   2    -0.141201369622E+03   -0.57571E-09   -0.89025E-10  3208   0.179E-04    0.261E-05
DAV:   3    -0.141201369622E+03    0.10823E-09   -0.31829E-10  3208   0.118E-04    0.144E-05
DAV:   4    -0.141201369621E+03    0.84947E-09   -0.10786E-10  3208   0.682E-05    0.137E-05
DAV:   5    -0.141201369622E+03   -0.71032E-09   -0.28968E-11  3208   0.835E-05    0.957E-06
DAV:   6    -0.141201369621E+03    0.10796E-08   -0.21122E-10  3200   0.354E-04
  36 F= -.14120137E+03 E0= -.14119925E+03  d E =0.813940E-05
       N       E                     dE             d eps       ncg     rms          rms(c)
DAV:   1    -0.141201369623E+03   -0.12133E-08   -0.34390E-10  3176   0.158E-04    0.243E-05
DAV:   2    -0.141201369622E+03    0.88039E-09   -0.34878E-10  3160   0.821E-05    0.139E-05
DAV:   3    -0.141201369623E+03   -0.11960E-08   -0.45677E-11  3152   0.281E-05    0.107E-05
DAV:   4    -0.141201369623E+03    0.56934E-09   -0.11744E-11  3136   0.257E-05    0.469E-06
DAV:   5    -0.141201369622E+03    0.53842E-09   -0.78616E-12  3136   0.475E-05    0.730E-06
DAV:   6    -0.141201369622E+03   -0.41928E-09   -0.14867E-11  3136   0.491E-05
  37 F= -.14120137E+03 E0= -.14119925E+03  d E =0.813748E-05
       N       E                     dE             d eps       ncg     rms          rms(c)
DAV:   1    -0.141201369623E+03   -0.86038E-09   -0.46685E-11  3136   0.190E-04    0.146E-05
DAV:   2    -0.141201369623E+03   -0.26648E-09   -0.11661E-10  3136   0.350E-05    0.151E-05
DAV:   3    -0.141201369623E+03    0.90040E-10   -0.20921E-11  3136   0.175E-05    0.922E-06
DAV:   4    -0.141201369623E+03    0.13642E-09   -0.11900E-11  3136   0.138E-05    0.274E-06
DAV:   5    -0.141201369623E+03   -0.21919E-09   -0.51307E-12  3136   0.788E-06    0.159E-06
DAV:   6    -0.141201369622E+03    0.12369E-08   -0.22391E-12  3136   0.665E-06
  38 F= -.14120137E+03 E0= -.14119925E+03  d E =0.813802E-05
       N       E                     dE             d eps       ncg     rms          rms(c)
DAV:   1    -0.141201369622E+03    0.11723E-08   -0.27752E-12  3136   0.947E-06    0.122E-06
DAV:   2    -0.141201369622E+03    0.13915E-09   -0.24805E-12  3136   0.492E-06    0.111E-06
DAV:   3    -0.141201369623E+03   -0.88221E-09   -0.38343E-12  3136   0.212E-06    0.772E-07
DAV:   4    -0.141201369623E+03    0.26375E-10   -0.12571E-12  3136   0.387E-06    0.531E-07
DAV:   5    -0.141201369622E+03    0.36744E-09    0.57654E-13  3136   0.144E-05    0.129E-06
DAV:   6    -0.141201369622E+03    0.22828E-09   -0.68879E-14  3136   0.309E-05
  39 F= -.14120137E+03 E0= -.14119925E+03  d E =0.813783E-05
       N       E                     dE             d eps       ncg     rms          rms(c)
DAV:   1    -0.141200986399E+03    0.38322E-03   -0.23812E-01  6472   0.218E+00    0.627E-02
DAV:   2    -0.141201469774E+03   -0.48338E-03   -0.52450E-03  7240   0.300E-01    0.358E-02
DAV:   3    -0.141201435730E+03    0.34044E-04   -0.48270E-05  7184   0.421E-02    0.241E-02
DAV:   4    -0.141201397678E+03    0.38052E-04   -0.52851E-05  7008   0.628E-02    0.758E-03
DAV:   5    -0.141201394329E+03    0.33490E-05   -0.50166E-05  6760   0.395E-02    0.852E-03
DAV:   6    -0.141201392995E+03    0.13340E-05   -0.11454E-05  4240   0.151E-02
  40 F= -.14120139E+03 E0= -.14119926E+03  d E =-.152352E-04
       N       E                     dE             d eps       ncg     rms          rms(c)
DAV:   1    -0.141201605067E+03   -0.21074E-03   -0.29156E-02  6312   0.753E-01    0.251E-02
DAV:   2    -0.141201647074E+03   -0.42007E-04   -0.71465E-04  7384   0.113E-01    0.179E-02
DAV:   3    -0.141201633466E+03    0.13608E-04   -0.16916E-05  5424   0.253E-02    0.128E-02
DAV:   4    -0.141201610365E+03    0.23101E-04   -0.38589E-05  6704   0.470E-02    0.737E-03
DAV:   5    -0.141201601526E+03    0.88397E-05   -0.17420E-05  4920   0.283E-02    0.859E-03
DAV:   6    -0.141201590743E+03    0.10783E-04   -0.15117E-05  5144   0.328E-02    0.481E-03
DAV:   7    -0.141201578516E+03    0.12227E-04   -0.64256E-06  4576   0.398E-02    0.636E-03
DAV:   8    -0.141201565108E+03    0.13408E-04   -0.94317E-06  5008   0.508E-02    0.597E-03
DAV:   9    -0.141201553096E+03    0.12012E-04   -0.21143E-05  5848   0.665E-02    0.304E-03
DAV:  10    -0.141201550313E+03    0.27834E-05   -0.26167E-05  5824   0.457E-02
  41 F= -.14120155E+03 E0= -.14119943E+03  d E =-.157318E-03
