       N       E                     dE             d eps       ncg     rms          rms(c)
DAV:   1     0.509094451122E+03    0.50909E+03   -0.44037E+04  6312   0.134E+03
DAV:   2    -0.974957212278E+02   -0.60659E+03   -0.57680E+03  8056   0.259E+02
DAV:   3    -0.154746192010E+03   -0.57250E+02   -0.56899E+02  7400   0.861E+01
DAV:   4    -0.155497184175E+03   -0.75099E+00   -0.74967E+00  7328   0.107E+01
DAV:   5    -0.155508639148E+03   -0.11455E-01   -0.11451E-01  7480   0.130E+00    0.230E+01
DAV:   6    -0.139905462670E+03    0.15603E+02   -0.89407E+01  7640   0.322E+01    0.793E+00
DAV:   7    -0.139832268669E+03    0.73194E-01   -0.29310E+00  7136   0.630E+00    0.485E+00
DAV:   8    -0.139768021474E+03    0.64247E-01   -0.95119E-01  7320   0.463E+00    0.139E+00
DAV:   9    -0.139722813340E+03    0.45208E-01   -0.19383E-01  7248   0.167E+00    0.650E-01
DAV:  10    -0.139725172888E+03   -0.23595E-02   -0.11953E-01  7152   0.139E+00    0.443E-01
DAV:  11    -0.139722085675E+03    0.30872E-02   -0.12530E-02  7720   0.554E-01    0.260E-01
DAV:  12    -0.139721973631E+03    0.11204E-03   -0.11590E-02  7384   0.477E-01    0.103E-01
DAV:  13    -0.139721995100E+03   -0.21469E-04   -0.11575E-03  7464   0.176E-01    0.530E-02
DAV:  14    -0.139721962949E+03    0.32152E-04   -0.42279E-04  7344   0.100E-01    0.153E-02
DAV:  15    -0.139721957896E+03    0.50530E-05   -0.64817E-05  7128   0.372E-02
   1 F= -.13972196E+03 E0= -.13971983E+03  d E =-.139722E+03
       N       E                     dE             d eps       ncg     rms          rms(c)
DAV:   1    -0.139723919094E+03   -0.19561E-02   -0.25454E-02  6600   0.668E-01    0.497E-02
DAV:   2    -0.139723871114E+03    0.47981E-04   -0.16534E-03  7400   0.195E-01    0.422E-02
DAV:   3    -0.139723837887E+03    0.33226E-04   -0.22925E-04  7200   0.665E-02    0.346E-02
DAV:   4    -0.139723794923E+03    0.42965E-04   -0.99516E-05  7272   0.458E-02    0.162E-02
DAV:   5    -0.139723754718E+03    0.40205E-04   -0.91321E-05  7296   0.702E-02    0.157E-02
DAV:   6    -0.139723746080E+03    0.86376E-05   -0.48758E-05  7328   0.443E-02
   2 F= -.13972375E+03 E0= -.13972159E+03  d E =-.178818E-02
       N       E                     dE             d eps       ncg     rms          rms(c)
DAV:   1    -0.139724293677E+03   -0.53896E-03   -0.16417E-02  6464   0.536E-01    0.362E-02
DAV:   2    -0.139724274694E+03    0.18983E-04   -0.10486E-03  7392   0.144E-01    0.344E-02
DAV:   3    -0.139724246351E+03    0.28344E-04   -0.10653E-04  7176   0.478E-02    0.271E-02
DAV:   4    -0.139724206365E+03    0.39986E-04   -0.10995E-04  7240   0.526E-02    0.124E-02
DAV:   5    -0.139724182257E+03    0.24107E-04   -0.55295E-05  7168   0.542E-02    0.162E-02
DAV:   6    -0.139724171575E+03    0.10683E-04   -0.42973E-05  7136   0.354E-02    0.677E-03
DAV:   7    -0.139724168335E+03    0.32399E-05   -0.13792E-05  4664   0.184E-02
   3 F= -.13972417E+03 E0= -.13972200E+03  d E =-.221044E-02
       N       E                     dE             d eps       ncg     rms          rms(c)
DAV:   1    -0.139725030838E+03   -0.85926E-03   -0.33240E-01  6304   0.249E+00    0.793E-02
DAV:   2    -0.139725819853E+03   -0.78902E-03   -0.87109E-03  7072   0.343E-01    0.478E-02
DAV:   3    -0.139725764871E+03    0.54982E-04   -0.89624E-05  7368   0.611E-02    0.319E-02
DAV:   4    -0.139725724452E+03    0.40419E-04   -0.58168E-05  7096   0.675E-02    0.130E-02
DAV:   5    -0.139725709850E+03    0.14602E-04   -0.52662E-05  7120   0.582E-02    0.603E-03
DAV:   6    -0.139725703253E+03    0.65974E-05   -0.20737E-05  4976   0.313E-02
   4 F= -.13972570E+03 E0= -.13972351E+03  d E =-.153492E-02
       N       E                     dE             d eps       ncg     rms          rms(c)
DAV:   1    -0.139721737536E+03    0.39723E-02   -0.29868E+00  6272   0.747E+00    0.238E-01
DAV:   2    -0.139728867113E+03   -0.71296E-02   -0.78987E-02  7040   0.103E+00    0.149E-01
DAV:   3    -0.139728330624E+03    0.53649E-03   -0.74599E-04  7368   0.186E-01    0.972E-02
DAV:   4    -0.139727942690E+03    0.38793E-03   -0.61515E-04  7640   0.214E-01    0.375E-02
DAV:   5    -0.139727827480E+03    0.11521E-03   -0.52549E-04  7568   0.174E-01    0.156E-02
DAV:   6    -0.139727793203E+03    0.34277E-04   -0.21272E-04  7104   0.863E-02    0.193E-02
DAV:   7    -0.139727782823E+03    0.10381E-04   -0.35897E-05  5672   0.249E-02    0.200E-02
DAV:   8    -0.139727742325E+03    0.40498E-04   -0.29501E-05  5792   0.313E-02    0.104E-02
DAV:   9    -0.139727639595E+03    0.10273E-03   -0.20206E-04  7352   0.139E-01    0.360E-02
DAV:  10    -0.139727578142E+03    0.61453E-04   -0.99810E-05  8112   0.103E-01    0.187E-02
DAV:  11    -0.139727567366E+03    0.10777E-04   -0.45236E-04  8312   0.155E-01    0.391E-02
DAV:  12    -0.139727491806E+03    0.75559E-04   -0.85312E-05  7312   0.126E-01    0.177E-02
DAV:  13    -0.139727463363E+03    0.28443E-04   -0.77621E-05  6856   0.970E-02    0.797E-03
DAV:  14    -0.139727457314E+03    0.60495E-05   -0.14609E-04  7304   0.983E-02    0.305E-02
DAV:  15    -0.139727449302E+03    0.80113E-05   -0.76841E-05  6616   0.379E-02
   5 F= -.13972745E+03 E0= -.13972520E+03  d E =-.328097E-02
       N       E                     dE             d eps       ncg     rms          rms(c)
DAV:   1    -0.139727986213E+03   -0.52890E-03   -0.87292E-02  6368   0.125E+00    0.439E-02
DAV:   2    -0.139728197198E+03   -0.21099E-03   -0.23164E-03  7048   0.175E-01    0.224E-02
DAV:   3    -0.139728187436E+03    0.97629E-05   -0.32004E-05  6728   0.246E-02    0.151E-02
DAV:   4    -0.139728181923E+03    0.55123E-05   -0.13312E-05  4480   0.194E-02    0.644E-03
DAV:   5    -0.139728180311E+03    0.16121E-05   -0.65918E-06  4168   0.160E-02    0.348E-03
DAV:   6    -0.139728179789E+03    0.52199E-06   -0.33453E-06  4000   0.115E-02
   6 F= -.13972818E+03 E0= -.13972592E+03  d E =-.730487E-03
       N       E                     dE             d eps       ncg     rms          rms(c)
DAV:   1    -0.139728263364E+03   -0.83053E-04   -0.78414E-01  6272   0.376E+00    0.123E-01
DAV:   2    -0.139730168595E+03   -0.19052E-02   -0.20683E-02  6952   0.525E-01    0.689E-02
DAV:   3    -0.139730068630E+03    0.99964E-04   -0.21325E-04  7400   0.691E-02    0.467E-02
DAV:   4    -0.139730004423E+03    0.64208E-04   -0.15667E-04  7256   0.608E-02    0.176E-02
DAV:   5    -0.139729987924E+03    0.16499E-04   -0.56344E-05  6952   0.452E-02    0.834E-03
DAV:   6    -0.139729975136E+03    0.12788E-04   -0.14790E-05  4632   0.362E-02    0.553E-03
DAV:   7    -0.139729962992E+03    0.12144E-04   -0.81351E-06  4424   0.343E-02    0.411E-03
DAV:   8    -0.139729933626E+03    0.29366E-04   -0.12220E-05  4992   0.747E-02    0.562E-03
DAV:   9    -0.139729915565E+03    0.18061E-04   -0.25646E-05  5688   0.566E-02    0.626E-03
DAV:  10    -0.139729891088E+03    0.24477E-04   -0.19502E-05  5544   0.107E-01    0.565E-03
DAV:  11    -0.139729883496E+03    0.75911E-05   -0.64981E-05  7408   0.115E-01
   7 F= -.13972988E+03 E0= -.13972761E+03  d E =-.243419E-02
       N       E                     dE             d eps       ncg     rms          rms(c)
DAV:   1    -0.139724222263E+03    0.56688E-02   -0.31321E+00  6272   0.754E+00    0.246E-01
DAV:   2    -0.139731961411E+03   -0.77391E-02   -0.83707E-02  6944   0.105E+00    0.143E-01
DAV:   3    -0.139731550767E+03    0.41064E-03   -0.84749E-04  7384   0.142E-01    0.957E-02
DAV:   4    -0.139731315006E+03    0.23576E-03   -0.63408E-04  7328   0.119E-01    0.369E-02
DAV:   5    -0.139731263627E+03    0.51379E-04   -0.20546E-04  7216   0.828E-02    0.160E-02
DAV:   6    -0.139731228501E+03    0.35126E-04   -0.60747E-05  7328   0.650E-02    0.107E-02
DAV:   7    -0.139731200378E+03    0.28122E-04   -0.22261E-05  4848   0.500E-02    0.732E-03
DAV:   8    -0.139731138538E+03    0.61841E-04   -0.29355E-05  6424   0.927E-02    0.862E-03
DAV:   9    -0.139731091200E+03    0.47338E-04   -0.36670E-05  6280   0.790E-02    0.104E-02
DAV:  10    -0.139731022556E+03    0.68643E-04   -0.55034E-05  7312   0.154E-01    0.941E-03
DAV:  11    -0.139730972245E+03    0.50312E-04   -0.18317E-04  9312   0.263E-01    0.981E-03
DAV:  12    -0.139730995068E+03   -0.22823E-04   -0.27611E-04  6904   0.698E-02    0.986E-03
DAV:  13    -0.139730995538E+03   -0.47049E-06   -0.30990E-05  5712   0.254E-02
   8 F= -.13973100E+03 E0= -.13972872E+03  d E =-.354624E-02
       N       E                     dE             d eps       ncg     rms          rms(c)
DAV:   1    -0.139730853137E+03    0.14193E-03   -0.86435E-02  6352   0.124E+00    0.437E-02
DAV:   2    -0.139731061184E+03   -0.20805E-03   -0.23363E-03  6968   0.177E-01    0.232E-02
DAV:   3    -0.139731049442E+03    0.11742E-04   -0.26136E-05  5960   0.256E-02    0.163E-02
DAV:   4    -0.139731040446E+03    0.89957E-05   -0.24854E-05  5656   0.251E-02    0.600E-03
DAV:   5    -0.139731038390E+03    0.20569E-05   -0.84042E-06  4272   0.178E-02    0.441E-03
DAV:   6    -0.139731036313E+03    0.20766E-05   -0.33964E-06  4048   0.169E-02
   9 F= -.13973104E+03 E0= -.13972875E+03  d E =-.358701E-02
       N       E                     dE             d eps       ncg     rms          rms(c)
DAV:   1    -0.139731876575E+03   -0.83819E-03   -0.86741E-02  6320   0.127E+00    0.359E-02
DAV:   2    -0.139732022697E+03   -0.14612E-03   -0.17414E-03  7280   0.167E-01    0.212E-02
DAV:   3    -0.139732010295E+03    0.12402E-04   -0.22450E-05  5512   0.239E-02    0.145E-02
DAV:   4    -0.139732000031E+03    0.10265E-04   -0.32329E-05  6592   0.281E-02    0.536E-03
DAV:   5    -0.139731998701E+03    0.13293E-05   -0.81597E-06  4136   0.138E-02    0.498E-03
DAV:   6    -0.139731996207E+03    0.24946E-05   -0.37917E-06  4272   0.148E-02
  10 F= -.13973200E+03 E0= -.13972972E+03  d E =-.959894E-03
       N       E                     dE             d eps       ncg     rms          rms(c)
DAV:   1    -0.139732885712E+03   -0.88701E-03   -0.78092E-01  6272   0.381E+00    0.108E-01
DAV:   2    -0.139734227403E+03   -0.13417E-02   -0.15753E-02  7264   0.503E-01    0.641E-02
DAV:   3    -0.139734122990E+03    0.10441E-03   -0.20592E-04  7504   0.713E-02    0.440E-02
DAV:   4    -0.139734046959E+03    0.76031E-04   -0.29395E-04  7192   0.764E-02    0.176E-02
DAV:   5    -0.139734040353E+03    0.66061E-05   -0.59936E-05  7160   0.370E-02    0.146E-02
DAV:   6    -0.139734030473E+03    0.98799E-05   -0.55299E-05  6832   0.480E-02
  11 F= -.13973403E+03 E0= -.13973179E+03  d E =-.299416E-02
       N       E                     dE             d eps       ncg     rms          rms(c)
DAV:   1    -0.139729597507E+03    0.44428E-02   -0.31216E+00  6272   0.761E+00    0.219E-01
DAV:   2    -0.139735008475E+03   -0.54110E-02   -0.63614E-02  7280   0.100E+00    0.130E-01
DAV:   3    -0.139734587284E+03    0.42119E-03   -0.83957E-04  7496   0.142E-01    0.894E-02
DAV:   4    -0.139734276113E+03    0.31117E-03   -0.12691E-03  7200   0.155E-01    0.373E-02
DAV:   5    -0.139734250750E+03    0.25364E-04   -0.23771E-04  7432   0.752E-02    0.308E-02
DAV:   6    -0.139734213207E+03    0.37543E-04   -0.24426E-04  8216   0.984E-02    0.169E-02
DAV:   7    -0.139734205684E+03    0.75221E-05   -0.57183E-05  6544   0.328E-02
  12 F= -.13973421E+03 E0= -.13973206E+03  d E =-.316937E-02
       N       E                     dE             d eps       ncg     rms          rms(c)
DAV:   1    -0.139733806710E+03    0.40650E-03   -0.62760E-01  6288   0.339E+00    0.919E-02
DAV:   2    -0.139734878560E+03   -0.10718E-02   -0.12431E-02  7256   0.442E-01    0.603E-02
DAV:   3    -0.139734795373E+03    0.83187E-04   -0.16006E-04  7560   0.679E-02    0.409E-02
DAV:   4    -0.139734737804E+03    0.57569E-04   -0.16400E-04  7208   0.615E-02    0.155E-02
DAV:   5    -0.139734733239E+03    0.45647E-05   -0.55330E-05  6984   0.400E-02    0.824E-03
DAV:   6    -0.139734730428E+03    0.28109E-05   -0.18903E-05  4744   0.336E-02
  13 F= -.13973473E+03 E0= -.13973255E+03  d E =-.369412E-02
       N       E                     dE             d eps       ncg     rms          rms(c)
DAV:   1    -0.139735512145E+03   -0.77891E-03   -0.14212E-01  6344   0.166E+00    0.487E-02
DAV:   2    -0.139735816824E+03   -0.30468E-03   -0.33759E-03  7096   0.232E-01    0.289E-02
DAV:   3    -0.139735797849E+03    0.18975E-04   -0.40022E-05  6816   0.352E-02    0.206E-02
DAV:   4    -0.139735779896E+03    0.17952E-04   -0.47739E-05  6664   0.469E-02    0.793E-03
DAV:   5    -0.139735777345E+03    0.25514E-05   -0.21400E-05  4688   0.288E-02    0.808E-03
DAV:   6    -0.139735774459E+03    0.28862E-05   -0.14390E-05  4360   0.242E-02
  14 F= -.13973577E+03 E0= -.13973361E+03  d E =-.104403E-02
       N       E                     dE             d eps       ncg     rms          rms(c)
DAV:   1    -0.139735652975E+03    0.12437E-03   -0.12761E+00  6304   0.500E+00    0.149E-01
DAV:   2    -0.139738421902E+03   -0.27689E-02   -0.30265E-02  7080   0.696E-01    0.841E-02
DAV:   3    -0.139738269124E+03    0.15278E-03   -0.34935E-04  7456   0.102E-01    0.590E-02
DAV:   4    -0.139738145697E+03    0.12343E-03   -0.37400E-04  7352   0.122E-01    0.223E-02
DAV:   5    -0.139738133901E+03    0.11796E-04   -0.16113E-04  7360   0.729E-02    0.211E-02
DAV:   6    -0.139738121567E+03    0.12334E-04   -0.10309E-04  6936   0.566E-02    0.999E-03
DAV:   7    -0.139738113092E+03    0.84755E-05   -0.10012E-05  4344   0.334E-02
  15 F= -.13973811E+03 E0= -.13973601E+03  d E =-.338266E-02
       N       E                     dE             d eps       ncg     rms          rms(c)
DAV:   1    -0.139729178436E+03    0.89431E-02   -0.51096E+00  6312   0.101E+01    0.296E-01
DAV:   2    -0.139740323170E+03   -0.11145E-01   -0.12116E-01  7048   0.140E+00    0.170E-01
DAV:   3    -0.139739705742E+03    0.61743E-03   -0.13447E-03  7456   0.200E-01    0.118E-01
DAV:   4    -0.139739206439E+03    0.49930E-03   -0.14251E-03  7408   0.243E-01    0.431E-02
DAV:   5    -0.139739169360E+03    0.37079E-04   -0.66393E-04  7456   0.144E-01    0.401E-02
DAV:   6    -0.139739129217E+03    0.40143E-04   -0.34110E-04  7232   0.996E-02    0.184E-02
DAV:   7    -0.139739094115E+03    0.35102E-04   -0.30241E-05  6024   0.647E-02    0.129E-02
DAV:   8    -0.139739058755E+03    0.35360E-04   -0.35448E-05  6672   0.740E-02    0.691E-03
DAV:   9    -0.139739040516E+03    0.18239E-04   -0.42183E-05  6528   0.659E-02    0.636E-03
DAV:  10    -0.139739027352E+03    0.13163E-04   -0.13507E-05  4816   0.619E-02    0.411E-03
DAV:  11    -0.139739025555E+03    0.17975E-05   -0.38102E-05  6080   0.376E-02
  16 F= -.13973903E+03 E0= -.13973698E+03  d E =-.429513E-02
       N       E                     dE             d eps       ncg     rms          rms(c)
DAV:   1    -0.139738384345E+03    0.64301E-03   -0.45925E-01  6312   0.301E+00    0.887E-02
DAV:   2    -0.139739370152E+03   -0.98581E-03   -0.10702E-02  7016   0.418E-01    0.505E-02
DAV:   3    -0.139739316354E+03    0.53798E-04   -0.11826E-04  7448   0.590E-02    0.357E-02
DAV:   4    -0.139739273681E+03    0.42673E-04   -0.16324E-04  7176   0.756E-02    0.135E-02
DAV:   5    -0.139739271096E+03    0.25848E-05   -0.56079E-05  6728   0.377E-02    0.126E-02
DAV:   6    -0.139739266950E+03    0.41461E-05   -0.34566E-05  6136   0.293E-02
  17 F= -.13973927E+03 E0= -.13973721E+03  d E =-.453652E-02
       N       E                     dE             d eps       ncg     rms          rms(c)
DAV:   1    -0.139739901719E+03   -0.63062E-03   -0.66443E-01  6392   0.364E+00    0.104E-01
DAV:   2    -0.139741319842E+03   -0.14181E-02   -0.15277E-02  7072   0.502E-01    0.584E-02
DAV:   3    -0.139741248375E+03    0.71467E-04   -0.15158E-04  7480   0.602E-02    0.403E-02
DAV:   4    -0.139741192085E+03    0.56290E-04   -0.14635E-04  7144   0.777E-02    0.131E-02
DAV:   5    -0.139741192417E+03   -0.33215E-06   -0.82935E-05  6760   0.460E-02    0.137E-02
DAV:   6    -0.139741189777E+03    0.26401E-05   -0.16324E-05  4128   0.193E-02
  18 F= -.13974119E+03 E0= -.13973915E+03  d E =-.192283E-02
       N       E                     dE             d eps       ncg     rms          rms(c)
DAV:   1    -0.139733107484E+03    0.80849E-02   -0.59726E+00  6384   0.109E+01    0.315E-01
DAV:   2    -0.139746019171E+03   -0.12912E-01   -0.13851E-01  7064   0.151E+00    0.178E-01
DAV:   3    -0.139745345149E+03    0.67402E-03   -0.12515E-03  7464   0.179E-01    0.121E-01
DAV:   4    -0.139744801863E+03    0.54329E-03   -0.13843E-03  7280   0.246E-01    0.362E-02
DAV:   5    -0.139744804592E+03   -0.27290E-05   -0.79099E-04  7184   0.140E-01    0.378E-02
DAV:   6    -0.139744776226E+03    0.28366E-04   -0.13746E-04  6648   0.535E-02    0.217E-02
DAV:   7    -0.139744721763E+03    0.54463E-04   -0.25755E-05  5568   0.510E-02    0.117E-02
DAV:   8    -0.139744659256E+03    0.62507E-04   -0.28238E-05  5992   0.750E-02    0.109E-02
DAV:   9    -0.139744573831E+03    0.85425E-04   -0.14333E-04  9296   0.171E-01    0.289E-02
DAV:  10    -0.139744495008E+03    0.78824E-04   -0.17376E-04  9144   0.186E-01    0.287E-02
DAV:  11    -0.139744471736E+03    0.23271E-04   -0.23581E-04  6888   0.860E-02    0.246E-02
DAV:  12    -0.139744454326E+03    0.17410E-04   -0.17118E-04  7048   0.613E-02    0.252E-02
DAV:  13    -0.139744402934E+03    0.51393E-04   -0.64499E-05  7816   0.185E-01    0.164E-02
DAV:  14    -0.139744400723E+03    0.22110E-05   -0.10795E-04  7024   0.809E-02    0.105E-02
DAV:  15    -0.139744402365E+03   -0.16428E-05   -0.66067E-05  6408   0.430E-02
  19 F= -.13974440E+03 E0= -.13974236E+03  d E =-.513542E-02
       N       E                     dE             d eps       ncg     rms          rms(c)
DAV:   1    -0.139743548745E+03    0.85198E-03   -0.57164E-01  6376   0.337E+00    0.977E-02
DAV:   2    -0.139744784017E+03   -0.12353E-02   -0.13273E-02  7064   0.464E-01    0.553E-02
DAV:   3    -0.139744719477E+03    0.64540E-04   -0.11717E-04  7480   0.551E-02    0.379E-02
DAV:   4    -0.139744667719E+03    0.51758E-04   -0.14088E-04  7096   0.798E-02    0.105E-02
DAV:   5    -0.139744669790E+03   -0.20713E-05   -0.80095E-05  6624   0.407E-02    0.120E-02
DAV:   6    -0.139744666977E+03    0.28131E-05   -0.65277E-06  4048   0.120E-02
  20 F= -.13974467E+03 E0= -.13974262E+03  d E =-.540003E-02
       N       E                     dE             d eps       ncg     rms          rms(c)
DAV:   1    -0.139746150959E+03   -0.14812E-02   -0.69716E-01  6336   0.375E+00    0.112E-01
DAV:   2    -0.139747622527E+03   -0.14716E-02   -0.16239E-02  7240   0.527E-01    0.664E-02
DAV:   3    -0.139747550926E+03    0.71601E-04   -0.20367E-04  7384   0.694E-02    0.485E-02
DAV:   4    -0.139747503093E+03    0.47832E-04   -0.42291E-04  7360   0.996E-02    0.248E-02
DAV:   5    -0.139747499948E+03    0.31451E-05   -0.69005E-05  6744   0.412E-02    0.246E-02
DAV:   6    -0.139747491652E+03    0.82964E-05   -0.57968E-05  6584   0.360E-02
  21 F= -.13974749E+03 E0= -.13974546E+03  d E =-.282467E-02
       N       E                     dE             d eps       ncg     rms          rms(c)
DAV:   1    -0.139744259220E+03    0.32407E-02   -0.28722E+00  6296   0.761E+00    0.231E-01
DAV:   2    -0.139750347190E+03   -0.60880E-02   -0.67797E-02  7248   0.108E+00    0.137E-01
DAV:   3    -0.139750021369E+03    0.32582E-03   -0.85982E-04  7400   0.142E-01    0.993E-02
DAV:   4    -0.139749786390E+03    0.23498E-03   -0.19334E-03  7384   0.210E-01    0.545E-02
DAV:   5    -0.139749750250E+03    0.36140E-04   -0.28610E-04  7432   0.868E-02    0.532E-02
DAV:   6    -0.139749691213E+03    0.59037E-04   -0.28233E-04  7272   0.878E-02    0.198E-02
DAV:   7    -0.139749672944E+03    0.18269E-04   -0.90243E-05  6968   0.530E-02    0.153E-02
DAV:   8    -0.139749648724E+03    0.24220E-04   -0.84906E-06  4352   0.324E-02    0.105E-02
DAV:   9    -0.139749604301E+03    0.44423E-04   -0.26074E-05  6000   0.685E-02    0.527E-03
DAV:  10    -0.139749540568E+03    0.63733E-04   -0.65424E-05  8024   0.141E-01    0.103E-02
DAV:  11    -0.139749497975E+03    0.42592E-04   -0.10123E-04  8536   0.163E-01    0.902E-03
DAV:  12    -0.139749496663E+03    0.13116E-05   -0.11098E-04  7352   0.956E-02    0.100E-02
DAV:  13    -0.139749502546E+03   -0.58823E-05   -0.68431E-05  6152   0.279E-02
  22 F= -.13974950E+03 E0= -.13974750E+03  d E =-.483557E-02
       N       E                     dE             d eps       ncg     rms          rms(c)
DAV:   1    -0.139748601179E+03    0.89548E-03   -0.15048E+00  6336   0.552E+00    0.160E-01
DAV:   2    -0.139751831036E+03   -0.32299E-02   -0.35143E-02  7184   0.761E-01    0.937E-02
DAV:   3    -0.139751661065E+03    0.16997E-03   -0.34277E-04  7472   0.966E-02    0.647E-02
DAV:   4    -0.139751554365E+03    0.10670E-03   -0.53363E-04  7176   0.123E-01    0.236E-02
DAV:   5    -0.139751558756E+03   -0.43914E-05   -0.14143E-04  6952   0.537E-02    0.206E-02
DAV:   6    -0.139751554633E+03    0.41228E-05   -0.62829E-05  6256   0.384E-02
  23 F= -.13975155E+03 E0= -.13974956E+03  d E =-.205209E-02
       N       E                     dE             d eps       ncg     rms          rms(c)
DAV:   1    -0.139750482024E+03    0.10767E-02   -0.93333E-01  6328   0.434E+00    0.127E-01
DAV:   2    -0.139752495910E+03   -0.20139E-02   -0.21793E-02  7192   0.600E-01    0.725E-02
DAV:   3    -0.139752395149E+03    0.10076E-03   -0.21476E-04  7464   0.762E-02    0.499E-02
DAV:   4    -0.139752332462E+03    0.62687E-04   -0.30825E-04  7016   0.929E-02    0.183E-02
DAV:   5    -0.139752334455E+03   -0.19933E-05   -0.81845E-05  6760   0.415E-02    0.159E-02
DAV:   6    -0.139752331326E+03    0.31292E-05   -0.39003E-05  6056   0.314E-02
  24 F= -.13975233E+03 E0= -.13975034E+03  d E =-.282878E-02
       N       E                     dE             d eps       ncg     rms          rms(c)
DAV:   1    -0.139744269553E+03    0.80649E-02   -0.37306E+00  6328   0.869E+00    0.253E-01
DAV:   2    -0.139752330622E+03   -0.80611E-02   -0.87487E-02  7184   0.120E+00    0.147E-01
DAV:   3    -0.139751916295E+03    0.41433E-03   -0.88240E-04  7440   0.153E-01    0.101E-01
DAV:   4    -0.139751659008E+03    0.25729E-03   -0.11927E-03  7200   0.182E-01    0.367E-02
DAV:   5    -0.139751664841E+03   -0.58324E-05   -0.31251E-04  7184   0.804E-02    0.301E-02
DAV:   6    -0.139751655217E+03    0.96233E-05   -0.14230E-04  6648   0.595E-02    0.122E-02
DAV:   7    -0.139751653692E+03    0.15255E-05   -0.18775E-05  4848   0.223E-02
  25 F= -.13975165E+03 E0= -.13974967E+03  d E =-.215115E-02
       N       E                     dE             d eps       ncg     rms          rms(c)
DAV:   1    -0.139748335837E+03    0.33194E-02   -0.21036E+00  6328   0.653E+00    0.186E-01
DAV:   2    -0.139752805275E+03   -0.44694E-02   -0.48502E-02  7176   0.897E-01    0.109E-01
DAV:   3    -0.139752578548E+03    0.22673E-03   -0.46820E-04  7432   0.112E-01    0.764E-02
DAV:   4    -0.139752429126E+03    0.14942E-03   -0.75730E-04  7184   0.151E-01    0.273E-02
DAV:   5    -0.139752438662E+03   -0.95355E-05   -0.21390E-04  7048   0.629E-02    0.258E-02
DAV:   6    -0.139752431376E+03    0.72857E-05   -0.97757E-05  6512   0.449E-02
  26 F= -.13975243E+03 E0= -.13975044E+03  d E =-.292883E-02
       N       E                     dE             d eps       ncg     rms          rms(c)
DAV:   1    -0.139752758229E+03   -0.31957E-03   -0.40384E-01  6616   0.283E+00    0.851E-02
DAV:   2    -0.139753642103E+03   -0.88387E-03   -0.10035E-02  7080   0.411E-01    0.558E-02
DAV:   3    -0.139753570025E+03    0.72078E-04   -0.12765E-04  7328   0.623E-02    0.419E-02
DAV:   4    -0.139753493275E+03    0.76750E-04   -0.23498E-04  7144   0.100E-01    0.169E-02
DAV:   5    -0.139753479752E+03    0.13524E-04   -0.10808E-04  6736   0.577E-02    0.211E-02
DAV:   6    -0.139753465972E+03    0.13780E-04   -0.41723E-05  6192   0.330E-02    0.839E-03
DAV:   7    -0.139753439070E+03    0.26902E-04   -0.19619E-05  5512   0.520E-02    0.759E-03
DAV:   8    -0.139753420234E+03    0.18836E-04   -0.59982E-05  7216   0.750E-02    0.235E-02
DAV:   9    -0.139753391538E+03    0.28696E-04   -0.60036E-05  7688   0.809E-02    0.176E-02
DAV:  10    -0.139753363234E+03    0.28304E-04   -0.17319E-05  5280   0.925E-02    0.143E-02
DAV:  11    -0.139753347033E+03    0.16201E-04   -0.73780E-05  7016   0.777E-02    0.850E-03
DAV:  12    -0.139753336829E+03    0.10204E-04   -0.22661E-05  5728   0.593E-02    0.726E-03
DAV:  13    -0.139753332485E+03    0.43443E-05   -0.18801E-05  5336   0.791E-02
  27 F= -.13975333E+03 E0= -.13975133E+03  d E =-.901109E-03
       N       E                     dE             d eps       ncg     rms          rms(c)
DAV:   1    -0.139753154402E+03    0.18243E-03   -0.10707E-01  6552   0.146E+00    0.461E-02
DAV:   2    -0.139753391162E+03   -0.23676E-03   -0.27201E-03  7112   0.215E-01    0.285E-02
DAV:   3    -0.139753372629E+03    0.18533E-04   -0.40633E-05  6672   0.336E-02    0.215E-02
DAV:   4    -0.139753354485E+03    0.18144E-04   -0.50737E-05  6304   0.453E-02    0.833E-03
DAV:   5    -0.139753348825E+03    0.56598E-05   -0.21408E-05  5104   0.291E-02    0.864E-03
DAV:   6    -0.139753342149E+03    0.66759E-05   -0.95313E-06  4352   0.246E-02
  28 F= -.13975334E+03 E0= -.13975134E+03  d E =-.910773E-03
       N       E                     dE             d eps       ncg     rms          rms(c)
DAV:   1    -0.139753334731E+03    0.14094E-04   -0.12891E-02  6808   0.506E-01    0.224E-02
DAV:   2    -0.139753361140E+03   -0.26410E-04   -0.38422E-04  7160   0.853E-02    0.110E-02
DAV:   3    -0.139753359737E+03    0.14037E-05   -0.19974E-05  4312   0.199E-02    0.768E-03
DAV:   4    -0.139753358395E+03    0.13420E-05   -0.46491E-06  3976   0.109E-02    0.352E-03
DAV:   5    -0.139753357571E+03    0.82338E-06   -0.26310E-06  3976   0.944E-03    0.228E-03
DAV:   6    -0.139753357032E+03    0.53957E-06   -0.64227E-07  3952   0.742E-03
  29 F= -.13975336E+03 E0= -.13975136E+03  d E =-.925656E-03
       N       E                     dE             d eps       ncg     rms          rms(c)
DAV:   1    -0.139753531984E+03   -0.17441E-03   -0.13002E-01  6664   0.157E+00    0.442E-02
DAV:   2    -0.139753760708E+03   -0.22872E-03   -0.27850E-03  7240   0.218E-01    0.316E-02
DAV:   3    -0.139753735705E+03    0.25004E-04   -0.35398E-05  6440   0.365E-02    0.232E-02
DAV:   4    -0.139753714208E+03    0.21496E-04   -0.11534E-04  6864   0.665E-02    0.108E-02
DAV:   5    -0.139753715655E+03   -0.14465E-05   -0.42410E-05  6176   0.284E-02    0.126E-02
DAV:   6    -0.139753715761E+03   -0.10613E-06   -0.23516E-06  3832   0.605E-03
  30 F= -.13975372E+03 E0= -.13975172E+03  d E =-.358729E-03
       N       E                     dE             d eps       ncg     rms          rms(c)
DAV:   1    -0.139753713773E+03    0.18815E-05   -0.31104E-02  6680   0.768E-01    0.272E-02
DAV:   2    -0.139753763367E+03   -0.49593E-04   -0.73694E-04  7296   0.115E-01    0.156E-02
DAV:   3    -0.139753755632E+03    0.77349E-05   -0.18245E-05  4848   0.266E-02    0.121E-02
DAV:   4    -0.139753747146E+03    0.84861E-05   -0.23374E-05  5504   0.356E-02    0.537E-03
DAV:   5    -0.139753744569E+03    0.25764E-05   -0.13927E-05  4240   0.276E-02    0.701E-03
DAV:   6    -0.139753743339E+03    0.12305E-05   -0.74075E-06  3952   0.143E-02
  31 F= -.13975374E+03 E0= -.13975174E+03  d E =-.386307E-03
       N       E                     dE             d eps       ncg     rms          rms(c)
DAV:   1    -0.139753974324E+03   -0.22975E-03   -0.71743E-03  6440   0.367E-01    0.145E-02
DAV:   2    -0.139753977106E+03   -0.27822E-05   -0.19806E-04  7336   0.614E-02    0.110E-02
DAV:   3    -0.139753967400E+03    0.97064E-05   -0.61970E-06  4184   0.213E-02    0.837E-03
DAV:   4    -0.139753939246E+03    0.28154E-04   -0.16603E-05  5416   0.592E-02    0.504E-03
DAV:   5    -0.139753927490E+03    0.11756E-04   -0.25591E-05  5448   0.379E-02    0.811E-03
DAV:   6    -0.139753921478E+03    0.60115E-05   -0.29257E-05  5792   0.326E-02
  32 F= -.13975392E+03 E0= -.13975194E+03  d E =-.178140E-03
