       N       E                     dE             d eps       ncg     rms          rms(c)
DAV:   1     0.533370902893E+03    0.53337E+03   -0.44804E+04  2788   0.134E+03
DAV:   2    -0.952607046613E+02   -0.62863E+03   -0.59591E+03  3590   0.255E+02
DAV:   3    -0.159662472562E+03   -0.64402E+02   -0.64078E+02  3240   0.883E+01
DAV:   4    -0.160550751295E+03   -0.88828E+00   -0.88654E+00  3208   0.112E+01
DAV:   5    -0.160565026323E+03   -0.14275E-01   -0.14269E-01  3326   0.139E+00    0.231E+01
DAV:   6    -0.144428074524E+03    0.16137E+02   -0.94569E+01  3158   0.300E+01    0.791E+00
DAV:   7    -0.144289086225E+03    0.13899E+00   -0.19578E+00  3044   0.528E+00    0.480E+00
DAV:   8    -0.144188318729E+03    0.10077E+00   -0.64784E-01  3174   0.407E+00    0.908E-01
DAV:   9    -0.144160853099E+03    0.27466E-01   -0.14708E-01  3138   0.124E+00    0.554E-01
DAV:  10    -0.144158734211E+03    0.21189E-02   -0.32786E-02  3116   0.698E-01    0.271E-01
DAV:  11    -0.144159833283E+03   -0.10991E-02   -0.50703E-03  3164   0.284E-01    0.152E-01
DAV:  12    -0.144160018367E+03   -0.18508E-03   -0.10013E-03  3566   0.209E-01    0.775E-02
DAV:  13    -0.144159924774E+03    0.93593E-04   -0.84196E-04  3278   0.154E-01    0.255E-02
DAV:  14    -0.144159890486E+03    0.34288E-04   -0.17066E-04  3084   0.723E-02    0.994E-03
DAV:  15    -0.144159856226E+03    0.34261E-04   -0.15873E-05  2050   0.476E-02    0.762E-03
DAV:  16    -0.144159780027E+03    0.76199E-04   -0.60377E-05  3012   0.125E-01    0.165E-02
DAV:  17    -0.144159705229E+03    0.74798E-04   -0.11539E-04  3612   0.181E-01    0.176E-02
DAV:  18    -0.144159665774E+03    0.39456E-04   -0.36290E-04  4376   0.326E-01    0.135E-02
DAV:  19    -0.144159718004E+03   -0.52230E-04   -0.42092E-04  3080   0.109E-01    0.214E-02
DAV:  20    -0.144159715909E+03    0.20948E-05   -0.75452E-05  2644   0.368E-02
   1 F= -.14415972E+03 E0= -.14415743E+03  d E =-.144160E+03
       N       E                     dE             d eps       ncg     rms          rms(c)
DAV:   1    -0.144161172586E+03   -0.14546E-02   -0.38405E-02  2984   0.819E-01    0.315E-02
DAV:   2    -0.144161208566E+03   -0.35980E-04   -0.11004E-03  3164   0.129E-01    0.267E-02
DAV:   3    -0.144161174043E+03    0.34524E-04   -0.46515E-05  2810   0.380E-02    0.175E-02
DAV:   4    -0.144161130544E+03    0.43499E-04   -0.85743E-05  2984   0.564E-02    0.852E-03
DAV:   5    -0.144161114138E+03    0.16406E-04   -0.31336E-05  2648   0.284E-02    0.728E-03
DAV:   6    -0.144161085328E+03    0.28810E-04   -0.42974E-05  2770   0.448E-02    0.105E-02
DAV:   7    -0.144161071114E+03    0.14213E-04   -0.13041E-05  2186   0.373E-02    0.918E-03
DAV:   8    -0.144161050025E+03    0.21089E-04   -0.48752E-05  2898   0.842E-02    0.505E-03
DAV:   9    -0.144161043538E+03    0.64874E-05   -0.46741E-05  2986   0.771E-02
   2 F= -.14416104E+03 E0= -.14415879E+03  d E =-.132763E-02
       N       E                     dE             d eps       ncg     rms          rms(c)
DAV:   1    -0.144161616858E+03   -0.56683E-03   -0.39136E-02  2956   0.830E-01    0.307E-02
DAV:   2    -0.144161666487E+03   -0.49630E-04   -0.12939E-03  3184   0.141E-01    0.290E-02
DAV:   3    -0.144161632539E+03    0.33948E-04   -0.47299E-05  2824   0.397E-02    0.208E-02
DAV:   4    -0.144161585058E+03    0.47481E-04   -0.85909E-05  2970   0.619E-02    0.915E-03
DAV:   5    -0.144161552089E+03    0.32970E-04   -0.38174E-05  2744   0.445E-02    0.886E-03
DAV:   6    -0.144161513221E+03    0.38867E-04   -0.24392E-05  2244   0.488E-02    0.591E-03
DAV:   7    -0.144161473577E+03    0.39645E-04   -0.22395E-05  2410   0.716E-02    0.845E-03
DAV:   8    -0.144161415329E+03    0.58248E-04   -0.78797E-05  3176   0.156E-01    0.487E-03
DAV:   9    -0.144161403193E+03    0.12135E-04   -0.10645E-04  3332   0.102E-01    0.583E-03
DAV:  10    -0.144161399039E+03    0.41543E-05   -0.36363E-05  2620   0.663E-02
   3 F= -.14416140E+03 E0= -.14415918E+03  d E =-.168313E-02
       N       E                     dE             d eps       ncg     rms          rms(c)
DAV:   1    -0.144162046607E+03   -0.64341E-03   -0.17184E-01  2840   0.174E+00    0.515E-02
DAV:   2    -0.144162394237E+03   -0.34763E-03   -0.38674E-03  3052   0.237E-01    0.295E-02
DAV:   3    -0.144162373491E+03    0.20746E-04   -0.36582E-05  2968   0.283E-02    0.204E-02
DAV:   4    -0.144162355115E+03    0.18376E-04   -0.57805E-05  2990   0.397E-02    0.784E-03
DAV:   5    -0.144162354543E+03    0.57186E-06   -0.19649E-05  2276   0.202E-02    0.684E-03
DAV:   6    -0.144162353143E+03    0.14000E-05   -0.43961E-06  1552   0.123E-02
   4 F= -.14416235E+03 E0= -.14416016E+03  d E =-.954104E-03
       N       E                     dE             d eps       ncg     rms          rms(c)
DAV:   1    -0.144161000912E+03    0.13536E-02   -0.12378E+00  2820   0.468E+00    0.140E-01
DAV:   2    -0.144163591602E+03   -0.25907E-02   -0.29053E-02  2976   0.651E-01    0.874E-02
DAV:   3    -0.144163420343E+03    0.17126E-03   -0.31648E-04  3176   0.831E-02    0.618E-02
DAV:   4    -0.144163266371E+03    0.15397E-03   -0.69252E-04  3154   0.116E-01    0.315E-02
DAV:   5    -0.144163250145E+03    0.16226E-04   -0.13169E-04  3084   0.544E-02    0.264E-02
DAV:   6    -0.144163226506E+03    0.23639E-04   -0.66510E-05  2932   0.492E-02    0.983E-03
DAV:   7    -0.144163202547E+03    0.23959E-04   -0.96390E-06  1936   0.402E-02    0.644E-03
DAV:   8    -0.144163156928E+03    0.45619E-04   -0.46827E-05  3040   0.900E-02    0.100E-02
DAV:   9    -0.144163136394E+03    0.20534E-04   -0.41794E-05  2692   0.470E-02    0.116E-02
DAV:  10    -0.144163094971E+03    0.41423E-04   -0.72661E-05  3064   0.770E-02    0.156E-02
DAV:  11    -0.144163063200E+03    0.31771E-04   -0.41681E-05  2796   0.112E-01    0.199E-02
DAV:  12    -0.144163046144E+03    0.17056E-04   -0.66562E-05  3036   0.936E-02    0.131E-02
DAV:  13    -0.144163052186E+03   -0.60417E-05   -0.17286E-04  2892   0.787E-02    0.153E-02
DAV:  14    -0.144163050257E+03    0.19289E-05   -0.34663E-05  2418   0.234E-02
   5 F= -.14416305E+03 E0= -.14416092E+03  d E =-.165122E-02
       N       E                     dE             d eps       ncg     rms          rms(c)
DAV:   1    -0.144163007346E+03    0.44840E-04   -0.62757E-02  2824   0.104E+00    0.333E-02
DAV:   2    -0.144163142413E+03   -0.13507E-03   -0.15541E-03  2990   0.149E-01    0.199E-02
DAV:   3    -0.144163133207E+03    0.92058E-05   -0.17086E-05  2268   0.216E-02    0.143E-02
DAV:   4    -0.144163125855E+03    0.73515E-05   -0.46629E-05  2790   0.341E-02    0.793E-03
DAV:   5    -0.144163125398E+03    0.45732E-06   -0.10838E-05  1588   0.142E-02    0.771E-03
DAV:   6    -0.144163125052E+03    0.34613E-06   -0.15633E-06  1468   0.537E-03
   6 F= -.14416313E+03 E0= -.14416098E+03  d E =-.172601E-02
       N       E                     dE             d eps       ncg     rms          rms(c)
DAV:   1    -0.144163575462E+03   -0.45006E-03   -0.27364E-01  2820   0.218E+00    0.686E-02
DAV:   2    -0.144164131362E+03   -0.55590E-03   -0.64732E-03  3048   0.306E-01    0.410E-02
DAV:   3    -0.144164098823E+03    0.32539E-04   -0.12551E-04  3172   0.532E-02    0.309E-02
DAV:   4    -0.144164076538E+03    0.22285E-04   -0.77591E-05  3020   0.397E-02    0.138E-02
DAV:   5    -0.144164068146E+03    0.83922E-05   -0.19616E-05  2256   0.282E-02    0.900E-03
DAV:   6    -0.144164066029E+03    0.21169E-05   -0.19465E-05  2204   0.285E-02
   7 F= -.14416407E+03 E0= -.14416194E+03  d E =-.940978E-03
       N       E                     dE             d eps       ncg     rms          rms(c)
DAV:   1    -0.144163168647E+03    0.89950E-03   -0.91988E-01  2828   0.401E+00    0.126E-01
DAV:   2    -0.144165065867E+03   -0.18972E-02   -0.21718E-02  3048   0.560E-01    0.741E-02
DAV:   3    -0.144164951056E+03    0.11481E-03   -0.33633E-04  3230   0.915E-02    0.545E-02
DAV:   4    -0.144164874687E+03    0.76369E-04   -0.29251E-04  3146   0.811E-02    0.228E-02
DAV:   5    -0.144164857995E+03    0.16691E-04   -0.69042E-05  3074   0.489E-02    0.166E-02
DAV:   6    -0.144164853395E+03    0.46008E-05   -0.75483E-05  3060   0.512E-02
   8 F= -.14416485E+03 E0= -.14416275E+03  d E =-.172834E-02
       N       E                     dE             d eps       ncg     rms          rms(c)
DAV:   1    -0.144165318416E+03   -0.46042E-03   -0.26607E-01  2812   0.218E+00    0.642E-02
DAV:   2    -0.144165825203E+03   -0.50679E-03   -0.56313E-03  3064   0.294E-01    0.389E-02
DAV:   3    -0.144165785992E+03    0.39211E-04   -0.59160E-05  3084   0.472E-02    0.269E-02
DAV:   4    -0.144165754338E+03    0.31654E-04   -0.15998E-04  3204   0.828E-02    0.113E-02
DAV:   5    -0.144165757008E+03   -0.26706E-05   -0.66778E-05  2774   0.346E-02    0.146E-02
DAV:   6    -0.144165757796E+03   -0.78750E-06   -0.31186E-06  1532   0.672E-03
   9 F= -.14416576E+03 E0= -.14416366E+03  d E =-.904401E-03
       N       E                     dE             d eps       ncg     rms          rms(c)
DAV:   1    -0.144164080515E+03    0.16765E-02   -0.15297E+00  2812   0.523E+00    0.156E-01
DAV:   2    -0.144166997401E+03   -0.29169E-02   -0.33141E-02  3070   0.714E-01    0.933E-02
DAV:   3    -0.144166765235E+03    0.23217E-03   -0.39315E-04  3244   0.121E-01    0.679E-02
DAV:   4    -0.144166557398E+03    0.20784E-03   -0.91336E-04  3350   0.208E-01    0.290E-02
DAV:   5    -0.144166567448E+03   -0.10049E-04   -0.45831E-04  3082   0.973E-02    0.407E-02
DAV:   6    -0.144166562819E+03    0.46288E-05   -0.42936E-05  2504   0.253E-02
  10 F= -.14416656E+03 E0= -.14416447E+03  d E =-.170942E-02
       N       E                     dE             d eps       ncg     rms          rms(c)
DAV:   1    -0.144166841342E+03   -0.27389E-03   -0.18657E-01  2820   0.186E+00    0.736E-02
DAV:   2    -0.144167197378E+03   -0.35604E-03   -0.45315E-03  3040   0.273E-01    0.305E-02
DAV:   3    -0.144167179148E+03    0.18230E-04   -0.12103E-04  3180   0.529E-02    0.230E-02
DAV:   4    -0.144167163711E+03    0.15437E-04   -0.48487E-05  2652   0.431E-02    0.115E-02
DAV:   5    -0.144167151630E+03    0.12081E-04   -0.19422E-05  2192   0.474E-02    0.869E-03
DAV:   6    -0.144167145631E+03    0.59991E-05   -0.17547E-05  1952   0.337E-02
  11 F= -.14416715E+03 E0= -.14416506E+03  d E =-.582812E-03
       N       E                     dE             d eps       ncg     rms          rms(c)
DAV:   1    -0.144165045336E+03    0.21063E-02   -0.16811E+00  2820   0.557E+00    0.166E-01
DAV:   2    -0.144168513231E+03   -0.34679E-02   -0.38026E-02  3052   0.778E-01    0.917E-02
DAV:   3    -0.144168355380E+03    0.15785E-03   -0.55308E-04  3318   0.103E-01    0.673E-02
DAV:   4    -0.144168241529E+03    0.11385E-03   -0.49231E-04  3258   0.105E-01    0.276E-02
DAV:   5    -0.144168234798E+03    0.67312E-05   -0.13782E-04  3160   0.562E-02    0.284E-02
DAV:   6    -0.144168223775E+03    0.11023E-04   -0.77350E-05  2880   0.484E-02    0.137E-02
DAV:   7    -0.144168223946E+03   -0.17149E-06   -0.43670E-05  2564   0.304E-02
  12 F= -.14416822E+03 E0= -.14416613E+03  d E =-.166113E-02
       N       E                     dE             d eps       ncg     rms          rms(c)
DAV:   1    -0.144168449594E+03   -0.22582E-03   -0.52373E-01  2852   0.309E+00    0.876E-02
DAV:   2    -0.144169456932E+03   -0.10073E-02   -0.11138E-02  3092   0.415E-01    0.508E-02
DAV:   3    -0.144169386196E+03    0.70736E-04   -0.11146E-04  3204   0.581E-02    0.341E-02
DAV:   4    -0.144169319216E+03    0.66979E-04   -0.14540E-04  3198   0.948E-02    0.909E-03
DAV:   5    -0.144169320299E+03   -0.10826E-05   -0.11788E-04  2972   0.519E-02    0.123E-02
DAV:   6    -0.144169320124E+03    0.17492E-06   -0.12100E-05  1718   0.133E-02
  13 F= -.14416932E+03 E0= -.14416722E+03  d E =-.109618E-02
       N       E                     dE             d eps       ncg     rms          rms(c)
DAV:   1    -0.144166751740E+03    0.25686E-02   -0.20272E+00  2828   0.607E+00    0.174E-01
DAV:   2    -0.144170633107E+03   -0.38814E-02   -0.43273E-02  3080   0.817E-01    0.100E-01
DAV:   3    -0.144170333659E+03    0.29945E-03   -0.42811E-04  3254   0.123E-01    0.681E-02
DAV:   4    -0.144170019770E+03    0.31389E-03   -0.56749E-04  3528   0.210E-01    0.202E-02
DAV:   5    -0.144169993340E+03    0.26430E-04   -0.52977E-04  3136   0.122E-01    0.244E-02
DAV:   6    -0.144169991655E+03    0.16843E-05   -0.88836E-05  2726   0.350E-02
  14 F= -.14416999E+03 E0= -.14416787E+03  d E =-.176771E-02
       N       E                     dE             d eps       ncg     rms          rms(c)
DAV:   1    -0.144170115192E+03   -0.12185E-03   -0.35136E-01  2828   0.257E+00    0.897E-02
DAV:   2    -0.144170840868E+03   -0.72568E-03   -0.84949E-03  3030   0.363E-01    0.420E-02
DAV:   3    -0.144170776526E+03    0.64342E-04   -0.88423E-05  3188   0.600E-02    0.295E-02
DAV:   4    -0.144170704687E+03    0.71839E-04   -0.88187E-05  3056   0.900E-02    0.126E-02
DAV:   5    -0.144170658230E+03    0.46457E-04   -0.88936E-05  3174   0.802E-02    0.996E-03
DAV:   6    -0.144170645272E+03    0.12958E-04   -0.60703E-05  2732   0.363E-02    0.116E-02
DAV:   7    -0.144170630214E+03    0.15058E-04   -0.41013E-06  1744   0.170E-02    0.872E-03
DAV:   8    -0.144170524092E+03    0.10612E-03   -0.38059E-04  3302   0.175E-01    0.486E-02
DAV:   9    -0.144170517515E+03    0.65770E-05   -0.63714E-05  2904   0.294E-02
  15 F= -.14417052E+03 E0= -.14416838E+03  d E =-.525859E-03
       N       E                     dE             d eps       ncg     rms          rms(c)
DAV:   1    -0.144166263292E+03    0.42608E-02   -0.26745E+00  2828   0.709E+00    0.203E-01
DAV:   2    -0.144171959006E+03   -0.56957E-02   -0.62070E-02  3032   0.982E-01    0.122E-01
DAV:   3    -0.144171638612E+03    0.32039E-03   -0.73231E-04  3278   0.120E-01    0.854E-02
DAV:   4    -0.144171379003E+03    0.25961E-03   -0.70505E-04  3224   0.133E-01    0.328E-02
DAV:   5    -0.144171331326E+03    0.47677E-04   -0.27257E-04  3184   0.875E-02    0.242E-02
DAV:   6    -0.144171312918E+03    0.18408E-04   -0.13014E-04  3078   0.544E-02    0.137E-02
DAV:   7    -0.144171289610E+03    0.23308E-04   -0.19550E-05  2032   0.294E-02    0.811E-03
DAV:   8    -0.144171254937E+03    0.34673E-04   -0.18260E-05  2238   0.467E-02    0.614E-03
DAV:   9    -0.144171221628E+03    0.33308E-04   -0.33651E-05  2766   0.639E-02    0.740E-03
DAV:  10    -0.144171189103E+03    0.32525E-04   -0.44437E-05  2846   0.852E-02    0.622E-03
DAV:  11    -0.144171173002E+03    0.16101E-04   -0.50275E-05  2986   0.822E-02    0.922E-03
DAV:  12    -0.144171166597E+03    0.64044E-05   -0.41843E-05  2690   0.444E-02
  16 F= -.14417117E+03 E0= -.14416899E+03  d E =-.117494E-02
       N       E                     dE             d eps       ncg     rms          rms(c)
DAV:   1    -0.144171636277E+03   -0.46328E-03   -0.76565E-02  2788   0.120E+00    0.334E-02
DAV:   2    -0.144171786682E+03   -0.15041E-03   -0.16282E-03  3036   0.161E-01    0.188E-02
DAV:   3    -0.144171780549E+03    0.61328E-05   -0.23592E-05  2258   0.219E-02    0.129E-02
DAV:   4    -0.144171775526E+03    0.50238E-05   -0.13522E-05  1804   0.211E-02    0.499E-03
DAV:   5    -0.144171774744E+03    0.78191E-06   -0.99914E-06  1654   0.155E-02    0.493E-03
DAV:   6    -0.144171774312E+03    0.43192E-06   -0.29679E-06  1482   0.864E-03
  17 F= -.14417177E+03 E0= -.14416958E+03  d E =-.607715E-03
       N       E                     dE             d eps       ncg     rms          rms(c)
DAV:   1    -0.144171799060E+03   -0.24317E-04   -0.69139E-01  2790   0.361E+00    0.107E-01
DAV:   2    -0.144173178253E+03   -0.13792E-02   -0.15481E-02  3072   0.503E-01    0.568E-02
DAV:   3    -0.144173117084E+03    0.61169E-04   -0.31879E-04  3292   0.790E-02    0.420E-02
DAV:   4    -0.144173057372E+03    0.59712E-04   -0.13250E-04  3168   0.522E-02    0.203E-02
DAV:   5    -0.144173010701E+03    0.46671E-04   -0.55364E-05  3104   0.665E-02    0.184E-02
DAV:   6    -0.144172982260E+03    0.28440E-04   -0.46624E-05  2628   0.628E-02    0.133E-02
DAV:   7    -0.144172956933E+03    0.25327E-04   -0.55791E-05  2882   0.638E-02    0.103E-02
DAV:   8    -0.144172918950E+03    0.37984E-04   -0.41619E-05  2742   0.553E-02    0.144E-02
DAV:   9    -0.144172832412E+03    0.86538E-04   -0.88696E-05  3404   0.195E-01    0.212E-02
DAV:  10    -0.144172814595E+03    0.17817E-04   -0.10494E-04  2878   0.816E-02    0.157E-02
DAV:  11    -0.144172801431E+03    0.13164E-04   -0.13407E-04  3652   0.117E-01    0.101E-02
DAV:  12    -0.144172798789E+03    0.26420E-05   -0.32561E-05  2788   0.115E-01
  18 F= -.14417280E+03 E0= -.14417055E+03  d E =-.163219E-02
       N       E                     dE             d eps       ncg     rms          rms(c)
DAV:   1    -0.144172811340E+03   -0.99087E-05   -0.28614E-02  2852   0.733E-01    0.222E-02
DAV:   2    -0.144172871052E+03   -0.59712E-04   -0.66216E-04  3096   0.101E-01    0.152E-02
DAV:   3    -0.144172866485E+03    0.45674E-05   -0.85751E-06  1858   0.138E-02    0.959E-03
DAV:   4    -0.144172863754E+03    0.27310E-05   -0.13770E-05  1728   0.174E-02    0.346E-03
DAV:   5    -0.144172863708E+03    0.46197E-07   -0.37491E-06  1488   0.886E-03    0.299E-03
DAV:   6    -0.144172863031E+03    0.67649E-06   -0.10942E-06  1648   0.107E-02
  19 F= -.14417286E+03 E0= -.14417061E+03  d E =-.169643E-02
       N       E                     dE             d eps       ncg     rms          rms(c)
DAV:   1    -0.144173466441E+03   -0.60273E-03   -0.34228E-02  2920   0.788E-01    0.258E-02
DAV:   2    -0.144173528097E+03   -0.61656E-04   -0.86336E-04  3168   0.121E-01    0.182E-02
DAV:   3    -0.144173516305E+03    0.11793E-04   -0.22501E-05  2132   0.274E-02    0.140E-02
DAV:   4    -0.144173501251E+03    0.15054E-04   -0.24232E-05  2498   0.322E-02    0.661E-03
DAV:   5    -0.144173494225E+03    0.70258E-05   -0.15091E-05  1914   0.284E-02    0.690E-03
DAV:   6    -0.144173490875E+03    0.33502E-05   -0.13706E-05  1822   0.232E-02
  20 F= -.14417349E+03 E0= -.14417123E+03  d E =-.627844E-03
       N       E                     dE             d eps       ncg     rms          rms(c)
DAV:   1    -0.144173888840E+03   -0.39461E-03   -0.30703E-01  2896   0.236E+00    0.764E-02
DAV:   2    -0.144174444778E+03   -0.55594E-03   -0.78320E-03  3178   0.367E-01    0.563E-02
DAV:   3    -0.144174337908E+03    0.10687E-03   -0.23196E-04  3208   0.843E-02    0.442E-02
DAV:   4    -0.144174211656E+03    0.12625E-03   -0.18447E-04  3156   0.819E-02    0.223E-02
DAV:   5    -0.144174126121E+03    0.85535E-04   -0.11746E-04  3374   0.921E-02    0.215E-02
DAV:   6    -0.144174066676E+03    0.59445E-04   -0.20859E-04  3598   0.122E-01    0.117E-02
DAV:   7    -0.144174051292E+03    0.15384E-04   -0.13480E-04  3272   0.790E-02    0.222E-02
DAV:   8    -0.144174036369E+03    0.14923E-04   -0.69881E-05  3026   0.416E-02    0.110E-02
DAV:   9    -0.144174021422E+03    0.14948E-04   -0.43823E-05  2768   0.443E-02    0.617E-03
DAV:  10    -0.144174018962E+03    0.24602E-05   -0.11705E-05  2046   0.279E-02
  21 F= -.14417402E+03 E0= -.14417172E+03  d E =-.115593E-02
       N       E                     dE             d eps       ncg     rms          rms(c)
DAV:   1    -0.144174064423E+03   -0.43002E-04   -0.13682E-02  2944   0.498E-01    0.160E-02
DAV:   2    -0.144174087007E+03   -0.22584E-04   -0.32277E-04  3156   0.760E-02    0.117E-02
DAV:   3    -0.144174082183E+03    0.48239E-05   -0.12269E-05  1826   0.215E-02    0.860E-03
DAV:   4    -0.144174076921E+03    0.52619E-05   -0.45845E-06  1816   0.180E-02    0.499E-03
DAV:   5    -0.144174071555E+03    0.53665E-05   -0.61618E-06  1924   0.268E-02    0.349E-03
DAV:   6    -0.144174069551E+03    0.20037E-05   -0.99978E-06  1898   0.251E-02
  22 F= -.14417407E+03 E0= -.14417177E+03  d E =-.120652E-02
       N       E                     dE             d eps       ncg     rms          rms(c)
DAV:   1    -0.144174241487E+03   -0.16993E-03   -0.37594E-02  2880   0.808E-01    0.236E-02
DAV:   2    -0.144174302749E+03   -0.61263E-04   -0.79210E-04  3124   0.112E-01    0.163E-02
DAV:   3    -0.144174294719E+03    0.80305E-05   -0.12022E-05  1930   0.196E-02    0.123E-02
DAV:   4    -0.144174287822E+03    0.68968E-05   -0.22698E-05  2336   0.279E-02    0.494E-03
DAV:   5    -0.144174286549E+03    0.12737E-05   -0.11635E-05  1752   0.183E-02    0.463E-03
DAV:   6    -0.144174286554E+03   -0.58535E-08   -0.31050E-06  1470   0.718E-03
  23 F= -.14417429E+03 E0= -.14417199E+03  d E =-.217003E-03
       N       E                     dE             d eps       ncg     rms          rms(c)
DAV:   1    -0.144174266049E+03    0.20499E-04   -0.14011E-01  2868   0.156E+00    0.462E-02
DAV:   2    -0.144174499721E+03   -0.23367E-03   -0.29761E-03  3150   0.216E-01    0.320E-02
DAV:   3    -0.144174468958E+03    0.30763E-04   -0.50212E-05  3020   0.427E-02    0.238E-02
DAV:   4    -0.144174445384E+03    0.23574E-04   -0.77745E-05  2848   0.520E-02    0.105E-02
DAV:   5    -0.144174438454E+03    0.69290E-05   -0.37138E-05  2764   0.349E-02    0.902E-03
DAV:   6    -0.144174437871E+03    0.58388E-06   -0.97461E-06  1570   0.131E-02
  24 F= -.14417444E+03 E0= -.14417212E+03  d E =-.368319E-03
       N       E                     dE             d eps       ncg     rms          rms(c)
DAV:   1    -0.144174502447E+03   -0.63993E-04   -0.12421E-02  2944   0.474E-01    0.157E-02
DAV:   2    -0.144174517922E+03   -0.15474E-04   -0.30505E-04  3092   0.687E-02    0.100E-02
DAV:   3    -0.144174509665E+03    0.82565E-05   -0.87023E-06  1964   0.197E-02    0.736E-03
DAV:   4    -0.144174503451E+03    0.62142E-05   -0.64882E-06  1798   0.175E-02    0.487E-03
DAV:   5    -0.144174493008E+03    0.10443E-04   -0.78178E-06  2010   0.280E-02    0.261E-03
DAV:   6    -0.144174485385E+03    0.76237E-05   -0.13761E-05  2114   0.291E-02
  25 F= -.14417449E+03 E0= -.14417216E+03  d E =-.475142E-04
