 vasp.5.3.5 31Mar14 (build Apr 08 2024 10:12:10) complex                        
  
 executed on             LinuxIFC date 2024.07.29  21:12:20
 running on    8 total cores
 distrk:  each k-point on    8 cores,    1 groups
 distr:  one band on NCORES_PER_BAND=   4 cores,    2 groups


--------------------------------------------------------------------------------------------------------


 INCAR:
 POTCAR:    PAW_PBE O 08Apr2002                   
 POTCAR:    PAW_PBE Mg 13Apr2007                  
 POTCAR:    PAW_PBE Al 04Jan2001                  
 POTCAR:    PAW_PBE O 08Apr2002                   
   VRHFIN =O: s2p4                                                              
   LEXCH  = PE                                                                  
   EATOM  =   432.3788 eV,   31.7789 Ry                                         
                                                                                
   TITEL  = PAW_PBE O 08Apr2002                                                 
   LULTRA =        F    use ultrasoft PP ?                                      
   IUNSCR =        1    unscreen: 0-lin 1-nonlin 2-no                           
   RPACOR =    1.200    partial core radius                                     
   POMASS =   16.000; ZVAL   =    6.000    mass and valenz                      
   RCORE  =    1.520    outmost cutoff radius                                   
   RWIGS  =    1.550; RWIGS  =    0.820    wigner-seitz radius (au A)           
   ENMAX  =  400.000; ENMIN  =  300.000 eV                                      
   ICORE  =        2    local potential                                         
   LCOR   =        T    correct aug charges                                     
   LPAW   =        T    paw PP                                                  
   EAUG   =  605.392                                                            
   DEXC   =    0.000                                                            
   RMAX   =    1.553    core radius for proj-oper                               
   RAUG   =    1.300    factor for augmentation sphere                          
   RDEP   =    1.550    radius for radial grids                                 
   RDEPT  =    1.329    core radius for aug-charge                              
                                                                                
   Atomic configuration                                                         
    4 entries                                                                   
     n  l   j            E        occ.                                          
     1  0  0.50      -514.6923   2.0000                                         
     2  0  0.50       -23.9615   2.0000                                         
     2  1  0.50        -9.0305   4.0000                                         
     3  2  1.50        -9.5241   0.0000                                         
   Description                                                                  
     l       E           TYP  RCUT    TYP  RCUT                                 
     0    -23.9615318     23  1.200                                             
     0     -9.5240782     23  1.200                                             
     1     -9.0304911     23  1.520                                             
     1      8.1634956     23  1.520                                             
     2     -9.5240782      7  1.500                                             
  local pseudopotential read in
  partial core-charges read in
  partial kinetic energy density read in
  kinetic energy density of atom read in
  atomic valenz-charges read in
  non local Contribution for L=           0  read in
    real space projection operators read in
  non local Contribution for L=           0  read in
    real space projection operators read in
  non local Contribution for L=           1  read in
    real space projection operators read in
  non local Contribution for L=           1  read in
    real space projection operators read in
    PAW grid and wavefunctions read in
 
   number of l-projection  operators is LMAX  =           4
   number of lm-projection operators is LMMAX =           8
 
 POTCAR:    PAW_PBE Mg 13Apr2007                  
   VRHFIN =Mg: s2p0                                                             
   LEXCH  = PE                                                                  
   EATOM  =    23.0369 eV,    1.6932 Ry                                         
                                                                                
   TITEL  = PAW_PBE Mg 13Apr2007                                                
   LULTRA =        F    use ultrasoft PP ?                                      
   IUNSCR =        1    unscreen: 0-lin 1-nonlin 2-no                           
   RPACOR =    1.500    partial core radius                                     
   POMASS =   24.305; ZVAL   =    2.000    mass and valenz                      
   RCORE  =    2.000    outmost cutoff radius                                   
   RWIGS  =    2.880; RWIGS  =    1.524    wigner-seitz radius (au A)           
   ENMAX  =  200.000; ENMIN  =  100.000 eV                                      
   RCLOC  =    1.506    cutoff for local pot                                    
   LCOR   =        T    correct aug charges                                     
   LPAW   =        T    paw PP                                                  
   EAUG   =  454.734                                                            
   DEXC   =    0.000                                                            
   RMAX   =    2.045    core radius for proj-oper                               
   RAUG   =    1.300    factor for augmentation sphere                          
   RDEP   =    2.025    radius for radial grids                                 
   RDEPT  =    1.942    core radius for aug-charge                              
                                                                                
   Atomic configuration                                                         
    6 entries                                                                   
     n  l   j            E        occ.                                          
     1  0  0.50     -1259.6230   2.0000                                         
     2  0  0.50       -79.8442   2.0000                                         
     2  1  1.50       -46.6121   6.0000                                         
     3  0  0.50        -4.7055   2.0000                                         
     3  1  0.50        -1.3660   0.0000                                         
     3  2  1.50        -1.3606   0.0000                                         
   Description                                                                  
     l       E           TYP  RCUT    TYP  RCUT                                 
     0     -4.7054661     23  2.000                                             
     0     27.2116520     23  2.000                                             
     1      1.3605826     23  2.000                                             
     1     27.2116520     23  2.000                                             
     2     -1.3605826     23  2.000                                             
  local pseudopotential read in
  partial core-charges read in
  partial kinetic energy density read in
  atomic valenz-charges read in
  non local Contribution for L=           0  read in
    real space projection operators read in
  non local Contribution for L=           0  read in
    real space projection operators read in
  non local Contribution for L=           1  read in
    real space projection operators read in
  non local Contribution for L=           1  read in
    real space projection operators read in
  non local Contribution for L=           2  read in
    real space projection operators read in
    PAW grid and wavefunctions read in
 
   number of l-projection  operators is LMAX  =           5
   number of lm-projection operators is LMMAX =          13
 
 POTCAR:    PAW_PBE Al 04Jan2001                  
   VRHFIN =Al: s2p1                                                             
   LEXCH  = PE                                                                  
   EATOM  =    53.5387 eV,    3.9350 Ry                                         
                                                                                
   TITEL  = PAW_PBE Al 04Jan2001                                                
   LULTRA =        F    use ultrasoft PP ?                                      
   IUNSCR =        1    unscreen: 0-lin 1-nonlin 2-no                           
   RPACOR =    1.500    partial core radius                                     
   POMASS =   26.981; ZVAL   =    3.000    mass and valenz                      
   RCORE  =    1.900    outmost cutoff radius                                   
   RWIGS  =    2.650; RWIGS  =    1.402    wigner-seitz radius (au A)           
   ENMAX  =  240.300; ENMIN  =  180.225 eV                                      
   ICORE  =        2    local potential                                         
   LCOR   =        T    correct aug charges                                     
   LPAW   =        T    paw PP                                                  
   EAUG   =  291.052                                                            
   DEXC   =    0.000                                                            
   RMAX   =    1.939    core radius for proj-oper                               
   RAUG   =    1.300    factor for augmentation sphere                          
   RDEP   =    1.966    radius for radial grids                                 
   RDEPT  =    1.856    core radius for aug-charge                              
                                                                                
   Atomic configuration                                                         
    6 entries                                                                   
     n  l   j            E        occ.                                          
     1  0  0.50     -1511.1048   2.0000                                         
     2  0  0.50      -108.1629   2.0000                                         
     2  1  1.50       -69.6402   6.0000                                         
     3  0  0.50        -7.7528   2.0000                                         
     3  1  1.50        -2.7121   1.0000                                         
     3  2  2.50        -2.7212   0.0000                                         
   Description                                                                  
     l       E           TYP  RCUT    TYP  RCUT                                 
     0     -7.7528455     23  1.900                                             
     0     -3.3096929     23  1.900                                             
     1     -2.7120682     23  1.900                                             
     1     13.6058260     23  1.900                                             
     2     -2.7211652      7  1.900                                             
  local pseudopotential read in
  partial core-charges read in
  partial kinetic energy density read in
  atomic valenz-charges read in
  non local Contribution for L=           0  read in
    real space projection operators read in
  non local Contribution for L=           0  read in
    real space projection operators read in
  non local Contribution for L=           1  read in
    real space projection operators read in
  non local Contribution for L=           1  read in
    real space projection operators read in
    PAW grid and wavefunctions read in
 
   number of l-projection  operators is LMAX  =           4
   number of lm-projection operators is LMMAX =           8
 

 ----------------------------------------------------------------------------- 
|                                                                             |
|  ADVICE TO THIS USER RUNNING 'VASP/VAMP'   (HEAR YOUR MASTER'S VOICE ...):  |
|                                                                             |
|      You have a (more or less) 'large supercell' and for larger cells       |
|      it might be more efficient to use real space projection opertators     |
|      So try LREAL= Auto  in the INCAR   file.                               |
|      Mind: At the moment your POTCAR file does not contain real space       |
|       projectors, and has to be modified,  BUT if you                       |
|      want to do an extremely  accurate calculation you might also keep the  |
|      reciprocal projection scheme          (i.e. LREAL=.FALSE.)             |
|                                                                             |
 ----------------------------------------------------------------------------- 

  PAW_PBE O 08Apr2002                   :
 energy of atom  1       EATOM= -432.3788
 kinetic energy error for atom=    0.0208 (will be added to EATOM!!)
  PAW_PBE Mg 13Apr2007                  :
 energy of atom  2       EATOM=  -23.0369
 kinetic energy error for atom=    0.0000 (will be added to EATOM!!)
  PAW_PBE Al 04Jan2001                  :
 energy of atom  3       EATOM=  -53.5387
 kinetic energy error for atom=    0.0002 (will be added to EATOM!!)
 
 
 POSCAR: Layer                                   
  positions in direct lattice
  velocities in cartesian coordinates
 exchange correlation table for  LEXCH =        8
   RHO(1)=    0.500       N(1)  =     2000
   RHO(2)=  100.500       N(2)  =     4000
 


--------------------------------------------------------------------------------------------------------


 ion  position               nearest neighbor table
   1  0.000  0.000  0.283-  14 2.15  14 2.15  14 2.15  18 2.18  18 2.18  18 2.18
   2  0.333  0.667  0.336-  11 2.15  11 2.15  11 2.15  14 2.15  14 2.15  14 2.15
   3  0.000  0.000  0.444-  15 2.15  15 2.15  15 2.15  19 2.15  19 2.15  19 2.15
   4  0.333  0.667  0.497-  12 2.15  12 2.15  12 2.15  15 2.15  15 2.15  15 2.15
   5  0.000  0.000  0.605-  20 2.15  20 2.15  20 2.15  16 2.15  16 2.15  16 2.15
   6  0.333  0.667  0.659-  16 2.15  16 2.15  16 2.15  13 2.15  13 2.15  13 2.15
   7  0.000  0.000  0.766-  21 2.15  21 2.15  21 2.15  17 2.18  17 2.18  17 2.18
   8  0.667  0.333  0.390-  19 2.15  19 2.15  19 2.15  11 2.15  11 2.15  11 2.15
   9  0.667  0.333  0.551-  12 2.15  12 2.15  12 2.15  20 2.15  20 2.15  20 2.15
  10  0.667  0.333  0.712-  13 2.15  13 2.15  13 2.15  21 2.15  21 2.15  21 2.15
  11  0.000  0.000  0.363-   2 2.15   2 2.15   2 2.15   8 2.15   8 2.15   8 2.15  19 3.09  19 3.09
                            19 3.09  14 3.09  14 3.09  14 3.09
  12  0.000  0.000  0.524-   9 2.15   9 2.15   9 2.15   4 2.15   4 2.15   4 2.15  15 3.08  15 3.08
                            15 3.08  20 3.08  20 3.08  20 3.08
  13  0.000  0.000  0.685-  10 2.15  10 2.15  10 2.15   6 2.15   6 2.15   6 2.15  16 3.09  16 3.09
                            16 3.09  21 3.09  21 3.09  21 3.09
  14  0.667  0.333  0.309-   1 2.15   1 2.15   1 2.15   2 2.15   2 2.15   2 2.15  11 3.09  11 3.09
                            11 3.09  18 3.12  18 3.12  18 3.12
  15  0.667  0.333  0.471-   3 2.15   3 2.15   3 2.15   4 2.15   4 2.15   4 2.15  19 3.08  19 3.08
                            19 3.08  12 3.08  12 3.08  12 3.08
  16  0.667  0.333  0.632-   6 2.15   6 2.15   6 2.15   5 2.15   5 2.15   5 2.15  20 3.08  20 3.08
                            20 3.08  13 3.09  13 3.09  13 3.09
  17  0.667  0.333  0.794-   7 2.18   7 2.18   7 2.18  21 3.12  21 3.12  21 3.12  26 3.35  26 3.35
                            26 3.35
  18  0.333  0.667  0.255-   1 2.18   1 2.18   1 2.18  14 3.12  14 3.12  14 3.12  23 3.35  23 3.35
                            23 3.35
  19  0.333  0.667  0.417-   3 2.15   3 2.15   3 2.15   8 2.15   8 2.15   8 2.15  15 3.08  15 3.08
                            15 3.08  11 3.09  11 3.09  11 3.09
  20  0.333  0.667  0.578-   5 2.15   5 2.15   5 2.15   9 2.15   9 2.15   9 2.15  16 3.08  16 3.08
                            16 3.08  12 3.08  12 3.08  12 3.08
  21  0.333  0.667  0.739-   7 2.15   7 2.15   7 2.15  10 2.15  10 2.15  10 2.15  13 3.09  13 3.09
                            13 3.09  17 3.12  17 3.12  17 3.12
  22  0.000  0.000  0.024-  25 3.07  25 3.07  25 3.07  27 3.07  27 3.07  27 3.07
  23  0.000  0.000  0.194-  24 3.31  24 3.31  24 3.31  18 3.35  18 3.35  18 3.35
  24  0.667  0.333  0.135-  25 3.23  25 3.23  25 3.23  23 3.31  23 3.31  23 3.31
  25  0.333  0.667  0.078-  22 3.07  22 3.07  22 3.07  24 3.23  24 3.23  24 3.23
  26  0.000  0.000  0.854-  28 3.31  28 3.31  28 3.31  17 3.35  17 3.35  17 3.35
  27  0.667  0.333  0.971-  22 3.07  22 3.07  22 3.07  28 3.23  28 3.23  28 3.23
  28  0.333  0.667  0.914-  27 3.23  27 3.23  27 3.23  26 3.31  26 3.31  26 3.31
 
  LATTYP: Found a hexagonal cell.
 ALAT       =     2.9932160299
 C/A-ratio  =    15.8881438446
  
  Lattice vectors:
  
 A1 = (   2.5922013181,  -1.4966076735,   0.0000000000)
 A2 = (   0.0000000000,   2.9932153469,   0.0000000000)
 A3 = (  -0.0000000000,   0.0000000000,  47.5566468418)


Analysis of symmetry for initial positions (statically):
=====================================================================
 Subroutine PRICEL returns:
 Original cell was already a primitive cell.
 

 Routine SETGRP: Setting up the symmetry group for a 
 hexagonal supercell.


 Subroutine GETGRP returns: Found 12 space group operations
 (whereof  6 operations were pure point group operations)
 out of a pool of 24 trial point group operations.


The static configuration has the point symmetry C_3v.
 The point group associated with its full space group is D_3d.


Analysis of symmetry for dynamics (positions and initial velocities):
=====================================================================
 Subroutine PRICEL returns:
 Original cell was already a primitive cell.
 

 Routine SETGRP: Setting up the symmetry group for a 
 hexagonal supercell.


 Subroutine GETGRP returns: Found 12 space group operations
 (whereof  6 operations were pure point group operations)
 out of a pool of 24 trial point group operations.


The dynamic configuration has the point symmetry C_3v.
 The point group associated with its full space group is D_3d.


Analysis of constrained symmetry for selective dynamics:
=====================================================================
 Subroutine PRICEL returns:
 Original cell was already a primitive cell.
 

 Routine SETGRP: Setting up the symmetry group for a 
 hexagonal supercell.


 Subroutine GETGRP returns: Found 12 space group operations
 (whereof  6 operations were pure point group operations)
 out of a pool of 24 trial point group operations.


The constrained configuration has the point symmetry C_3v.
 The point group associated with its full space group is D_3d.
 
 
 KPOINTS: K-Spacing Value to Generate K-Mesh: 0.02

Automatic generation of k-mesh.
Space group operators:
 irot       det(A)        alpha          n_x          n_y          n_z        tau_x        tau_y        tau_z
    1     1.000000     0.000000     1.000000     0.000000     0.000000     0.000000     0.000000     0.000000
    2     1.000000   120.000000     0.000000     0.000000    -1.000000     0.000000     0.000000     0.000000
    3     1.000000   120.000000    -0.000000     0.000000     1.000000     0.000000     0.000000     0.000000
    4    -1.000000   180.000000    -0.866025     0.500000    -0.000000     0.000000     0.000000     0.000000
    5    -1.000000   180.000000     0.000000     1.000000     0.000000     0.000000     0.000000     0.000000
    6    -1.000000   180.000000    -0.866025    -0.500000    -0.000000     0.000000     0.000000     0.000000
    7    -1.000000     0.000000     1.000000     0.000000     0.000000     0.000000     0.000000     0.048638
    8    -1.000000   120.000000     0.000000     0.000000    -1.000000     0.000000     0.000000     0.048638
    9    -1.000000   120.000000    -0.000000     0.000000     1.000000     0.000001    -0.000000     0.048638
   10     1.000000   180.000000    -0.866025     0.500000    -0.000000     0.000001    -0.000000     0.048638
   11     1.000000   180.000000     0.000000     1.000000     0.000000     0.000000     0.000000     0.048638
   12     1.000000   180.000000    -0.866025    -0.500000    -0.000000     0.000000     0.000000     0.048638
 
 Subroutine IBZKPT returns following result:
 ===========================================
 
 Found     21 irreducible k-points:
 
 Following reciprocal coordinates:
            Coordinates               Weight
  0.000000  0.000000  0.000000      1.000000
  0.076923  0.000000  0.000000      6.000000
  0.153846  0.000000 -0.000000      6.000000
  0.230769  0.000000  0.000000      6.000000
  0.307692  0.000000 -0.000000      6.000000
  0.384615  0.000000  0.000000      6.000000
  0.461538  0.000000  0.000000      6.000000
  0.076923  0.076923  0.000000      6.000000
  0.153846  0.076923  0.000000     12.000000
  0.230769  0.076923 -0.000000     12.000000
  0.307692  0.076923 -0.000000     12.000000
  0.384615  0.076923 -0.000000     12.000000
  0.461538  0.076923 -0.000000      6.000000
  0.153846  0.153846  0.000000      6.000000
  0.230769  0.153846  0.000000     12.000000
  0.307692  0.153846  0.000000     12.000000
  0.384615  0.153846  0.000000     12.000000
  0.230769  0.230769  0.000000      6.000000
  0.307692  0.230769 -0.000000     12.000000
  0.384615  0.230769  0.000000      6.000000
  0.307692  0.307692  0.000000      6.000000
 
 Following cartesian coordinates:
            Coordinates               Weight
  0.000000  0.000000  0.000000      1.000000
  0.029675  0.000000  0.000000      6.000000
  0.059350  0.000000  0.000000      6.000000
  0.089024  0.000000  0.000000      6.000000
  0.118699  0.000000  0.000000      6.000000
  0.148374  0.000000  0.000000      6.000000
  0.178049  0.000000  0.000000      6.000000
  0.044512  0.025699  0.000000      6.000000
  0.074187  0.025699  0.000000     12.000000
  0.103862  0.025699  0.000000     12.000000
  0.133537  0.025699  0.000000     12.000000
  0.163211  0.025699  0.000000     12.000000
  0.192886  0.025699  0.000000      6.000000
  0.089024  0.051398  0.000000      6.000000
  0.118699  0.051398  0.000000     12.000000
  0.148374  0.051398  0.000000     12.000000
  0.178049  0.051398  0.000000     12.000000
  0.133537  0.077097  0.000000      6.000000
  0.163211  0.077097  0.000000     12.000000
  0.192886  0.077097  0.000000      6.000000
  0.178049  0.102797  0.000000      6.000000
 


--------------------------------------------------------------------------------------------------------




 Dimension of arrays:
   k-points           NKPTS =     21   k-points in BZ     NKDIM =     21   number of bands    NBANDS=     66
   number of dos      NEDOS =    301   number of ions     NIONS =     28
   non local maximal  LDIM  =      5   non local SUM 2l+1 LMDIM =     13
   total plane-waves  NPLWV = 207360
   max r-space proj   IRMAX =      1   max aug-charges    IRDMAX= 191154
   dimension x,y,z NGX =    24 NGY =   24 NGZ =  360
   dimension x,y,z NGXF=    48 NGYF=   48 NGZF=  720
   support grid    NGXF=    96 NGYF=   96 NGZF= 1440
   ions per type =              10  11   7
 NGX,Y,Z   is equivalent  to a cutoff of  13.33, 13.33, 12.58 a.u.
 NGXF,Y,Z  is equivalent  to a cutoff of  26.66, 26.66, 25.17 a.u.


 I would recommend the setting:
   dimension x,y,z NGX =    22 NGY =   22 NGZ =  354
 SYSTEM =  unknown system                          
 POSCAR =  Layer                                   

 Startparameter for this run:
   NWRITE =      2    write-flag & timer
   PREC   = accura    normal or accurate (medium, high low for compatibility)
   ISTART =      0    job   : 0-new  1-cont  2-samecut
   ICHARG =      2    charge: 1-file 2-atom 10-const
   ISPIN  =      1    spin polarized calculation?
   LNONCOLLINEAR =      F non collinear calculations
   LSORBIT =      F    spin-orbit coupling
   INIWAV =      1    electr: 0-lowe 1-rand  2-diag
   LASPH  =      F    aspherical Exc in radial PAW
   METAGGA=      F    non-selfconsistent MetaGGA calc.

 Electronic Relaxation 1
   ENCUT  =  520.0 eV  38.22 Ry    6.18 a.u.   5.57  5.57 88.42*2*pi/ulx,y,z
   ENINI  =  520.0     initial cutoff
   ENAUG  =  605.4 eV  augmentation charge cutoff
   NELM   =    100;   NELMIN=  6; NELMDL=  0     # of ELM steps 
   EDIFF  = 0.1E-04   stopping-criterion for ELM
   LREAL  =      F    real-space projection
   NLSPLINE    = F    spline interpolate recip. space projectors
   LCOMPAT=      F    compatible to vasp.4.4
   GGA_COMPAT  = T    GGA compatible to vasp.4.4-vasp.4.6
   LMAXPAW     = -100 max onsite density
   LMAXMIX     =    2 max onsite mixed and CHGCAR
   VOSKOWN=      0    Vosko Wilk Nusair interpolation
   ROPT   =    0.00000   0.00000   0.00000
 Ionic relaxation
   EDIFFG = -.2E-01   stopping-criterion for IOM
   NSW    =    500    number of steps for IOM
   NBLOCK =      1;   KBLOCK =    500    inner block; outer block 
   IBRION =      2    ionic relax: 0-MD 1-quasi-New 2-CG
   NFREE  =      1    steps in history (QN), initial steepest desc. (CG)
   ISIF   =      2    stress and relaxation
   IWAVPR =     11    prediction:  0-non 1-charg 2-wave 3-comb
   ISYM   =      2    0-nonsym 1-usesym 2-fastsym
   LCORR  =      T    Harris-Foulkes like correction to forces

   POTIM  = 0.5000    time-step for ionic-motion
   TEIN   =    0.0    initial temperature
   TEBEG  =    0.0;   TEEND  =   0.0 temperature during run
   SMASS  =  -3.00    Nose mass-parameter (am)
   estimated Nose-frequenzy (Omega)   =  0.10E-29 period in steps =****** mass=  -0.205E-27a.u.
   SCALEE = 1.0000    scale energy and forces
   NPACO  =    256;   APACO  = 16.0  distance and # of slots for P.C.
   PSTRESS=    0.0 pullay stress

  Mass of Ions in am
   POMASS =  16.00 24.30 26.98
  Ionic Valenz
   ZVAL   =   6.00  2.00  3.00
  Atomic Wigner-Seitz radii
   RWIGS  =  -1.00 -1.00 -1.00
  virtual crystal weights 
   VCA    =   1.00  1.00  1.00
   NELECT =     103.0000    total number of electrons
   NUPDOWN=      -1.0000    fix difference up-down

 DOS related values:
   EMIN   =  10.00;   EMAX   =-10.00  energy-range for DOS
   EFERMI =   0.00
   ISMEAR =     0;   SIGMA  =   0.05  broadening in eV -4-tet -1-fermi 0-gaus

 Electronic relaxation 2 (details)
   IALGO  =     38    algorithm
   LDIAG  =      T    sub-space diagonalisation (order eigenvalues)
   LSUBROT=      F    optimize rotation matrix (better conditioning)
   TURBO    =      0    0=normal 1=particle mesh
   IRESTART =      0    0=no restart 2=restart with 2 vectors
   NREBOOT  =      0    no. of reboots
   NMIN     =      0    reboot dimension
   EREF     =   0.00    reference energy to select bands
   IMIX   =      4    mixing-type and parameters
     AMIX     =   0.40;   BMIX     =  1.00
     AMIX_MAG =   1.60;   BMIX_MAG =  1.00
     AMIN     =   0.01
     WC   =   100.;   INIMIX=   1;  MIXPRE=   1;  MAXMIX= -45

 Intra band minimization:
   WEIMIN = 0.0010     energy-eigenvalue tresh-hold
   EBREAK =  0.38E-07  absolut break condition
   DEPER  =   0.30     relativ break condition  

   TIME   =   0.40     timestep for ELM

  volume/ion in A,a.u.               =      13.18        88.93
  Fermi-wavevector in a.u.,A,eV,Ry     =   1.069912  2.021840 15.574739  1.144711
  Thomas-Fermi vector in A             =   2.205606
 
 Write flags
   LWAVE  =      F    write WAVECAR
   LCHARG =      T    write CHGCAR
   LVTOT  =      F    write LOCPOT, total local potential
   LVHAR  =      F    write LOCPOT, Hartree potential only
   LELF   =      F    write electronic localiz. function (ELF)
   LORBIT =      0    0 simple, 1 ext, 2 COOP (PROOUT)


 Dipole corrections
   LMONO  =      F    monopole corrections only (constant potential shift)
   LDIPOL =      F    correct potential (dipole corrections)
   IDIPOL =      0    1-x, 2-y, 3-z, 4-all directions 
   EPSILON=  1.0000000 bulk dielectric constant

 Exchange correlation treatment:
   GGA     =    --    GGA type
   LEXCH   =     8    internal setting for exchange type
   VOSKOWN=      0    Vosko Wilk Nusair interpolation
   LHFCALC =     F    Hartree Fock is set to
   LHFONE  =     F    Hartree Fock one center treatment
   AEXX    =    0.0000 exact exchange contribution

 Linear response parameters
   LEPSILON=     F    determine dielectric tensor
   LRPA    =     F    only Hartree local field effects (RPA)
   LNABLA  =     F    use nabla operator in PAW spheres
   LVEL    =     F    velocity operator in full k-point grid
   LINTERFAST=   F  fast interpolation
   KINTER  =     0    interpolate to denser k-point grid
   CSHIFT  =0.1000    complex shift for real part using Kramers Kronig
   OMEGAMAX=  -1.0    maximum frequency
   DEG_THRESHOLD= 0.2000000E-02 threshold for treating states as degnerate
   RTIME   =    0.100 relaxation time in fs

 Orbital magnetization related:
   ORBITALMAG=     F  switch on orbital magnetization
   LCHIMAG   =     F  perturbation theory with respect to B field
   DQ        =  0.001000  dq finite difference perturbation B field



--------------------------------------------------------------------------------------------------------


 conjugate gradient relaxation of ions
   using selective dynamics as specified on POSCAR
 charge density and potential will be updated during run
 non-spin polarized calculation
 Variant of blocked Davidson
 Davidson routine will perform the subspace rotation
 perform sub-space diagonalisation
    after iterative eigenvector-optimisation
 modified Broyden-mixing scheme, WC =      100.0
 initial mixing is a Kerker type mixing with AMIX =  0.4000 and BMIX =      1.0000
 Hartree-type preconditioning will be used
 using additional bands           14
 reciprocal scheme for non local part
 use partial core corrections
 calculate Harris-corrections to forces 
   (improved forces if not selfconsistent)
 use gradient corrections 
 use of overlap-Matrix (Vanderbilt PP)
 Gauss-broadening in eV      SIGMA  =   0.05


--------------------------------------------------------------------------------------------------------


  energy-cutoff  :      520.00
  volume of cell :      368.99
      direct lattice vectors                 reciprocal lattice vectors
     2.592201318 -1.496607673  0.000000000     0.385772507  0.000000000  0.000000000
     0.000000000  2.993215347  0.000000000     0.192886253  0.334088892  0.000000000
    -0.000000000  0.000000000 47.556646842     0.000000000  0.000000000  0.021027555

  length of vectors
     2.993216030  2.993215347 47.556646842     0.385772507  0.385772595  0.021027555


 
 k-points in units of 2pi/SCALE and weight: K-Spacing Value to Generate K-Mesh: 0.02
   0.00000000  0.00000000  0.00000000       0.006
   0.02967481  0.00000000  0.00000000       0.036
   0.05934962  0.00000000  0.00000000       0.036
   0.08902442  0.00000000  0.00000000       0.036
   0.11869923  0.00000000  0.00000000       0.036
   0.14837404  0.00000000  0.00000000       0.036
   0.17804885  0.00000000  0.00000000       0.036
   0.04451221  0.02569915  0.00000000       0.036
   0.07418702  0.02569915  0.00000000       0.071
   0.10386183  0.02569915  0.00000000       0.071
   0.13353664  0.02569915  0.00000000       0.071
   0.16321145  0.02569915  0.00000000       0.071
   0.19288625  0.02569915  0.00000000       0.036
   0.08902442  0.05139829  0.00000000       0.036
   0.11869923  0.05139829  0.00000000       0.071
   0.14837404  0.05139829  0.00000000       0.071
   0.17804885  0.05139829  0.00000000       0.071
   0.13353664  0.07709744  0.00000000       0.036
   0.16321145  0.07709744  0.00000000       0.071
   0.19288625  0.07709744  0.00000000       0.036
   0.17804885  0.10279658  0.00000000       0.036
 
 k-points in reciprocal lattice and weights: K-Spacing Value to Generate K-Mesh: 0.02
   0.00000000  0.00000000  0.00000000       0.006
   0.07692308  0.00000000  0.00000000       0.036
   0.15384615  0.00000000 -0.00000000       0.036
   0.23076923  0.00000000  0.00000000       0.036
   0.30769231  0.00000000 -0.00000000       0.036
   0.38461538  0.00000000  0.00000000       0.036
   0.46153846  0.00000000  0.00000000       0.036
   0.07692308  0.07692308  0.00000000       0.036
   0.15384615  0.07692308  0.00000000       0.071
   0.23076923  0.07692308 -0.00000000       0.071
   0.30769231  0.07692308 -0.00000000       0.071
   0.38461538  0.07692308 -0.00000000       0.071
   0.46153846  0.07692308 -0.00000000       0.036
   0.15384615  0.15384615  0.00000000       0.036
   0.23076923  0.15384615  0.00000000       0.071
   0.30769231  0.15384615  0.00000000       0.071
   0.38461538  0.15384615  0.00000000       0.071
   0.23076923  0.23076923  0.00000000       0.036
   0.30769231  0.23076923 -0.00000000       0.071
   0.38461538  0.23076923  0.00000000       0.036
   0.30769231  0.30769231  0.00000000       0.036
 
 position of ions in fractional coordinates (direct lattice) 
   0.00000000  0.00000000  0.28257983
   0.33333300  0.66666700  0.33633127
   0.00000000  0.00000000  0.44378057
   0.33333300  0.66666700  0.49747303
   0.00000000  0.00000000  0.60485662
   0.33333300  0.66666700  0.65858316
   0.00000000  0.00000000  0.76606537
   0.66666700  0.33333300  0.39005708
   0.66666700  0.33333300  0.55116252
   0.66666700  0.33333300  0.71231195
   0.00000000  0.00000000  0.36317677
   0.00000000  0.00000000  0.52431823
   0.00000000  0.00000000  0.68546450
   0.66666700  0.33333300  0.30941368
   0.66666700  0.33333300  0.47061308
   0.66666700  0.33333300  0.63172000
   0.66666700  0.33333300  0.79393059
   0.33333300  0.66666700  0.25471475
   0.33333300  0.66666700  0.41691938
   0.33333300  0.66666700  0.57802406
   0.33333300  0.66666700  0.73922959
   0.00000000  0.00000000  0.02431958
   0.00000000  0.00000000  0.19446915
   0.66666700  0.33333300  0.13510361
   0.33333300  0.66666700  0.07779726
   0.00000000  0.00000000  0.85417711
   0.66666700  0.33333300  0.97084101
   0.33333300  0.66666700  0.91353728
 
 position of ions in cartesian coordinates  (Angst):
  -0.00000000  0.00000000 13.43854902
   0.86406624  1.49660917 15.99478734
  -0.00000000  0.00000000 21.10471598
   0.86406624  1.49660917 23.65814920
  -0.00000000  0.00000000 28.76495258
   0.86406624  1.49660917 31.32000658
  -0.00000000  0.00000000 36.43150004
   1.72813508 -0.00000150 18.54980680
   1.72813508 -0.00000150 26.21144120
   1.72813508 -0.00000150 33.87516794
  -0.00000000  0.00000000 17.27146931
  -0.00000000  0.00000000 24.93481708
  -0.00000000  0.00000000 32.59839325
   1.72813508 -0.00000150 14.71467703
   1.72813508 -0.00000150 22.38077981
   1.72813508 -0.00000150 30.04248487
   1.72813508 -0.00000150 37.75667649
   0.86406624  1.49660917 12.11337933
   0.86406624  1.49660917 19.82728761
   0.86406624  1.49660917 27.48888622
   0.86406624  1.49660917 35.15528058
  -0.00000000  0.00000000  1.15655773
  -0.00000000  0.00000000  9.24830049
   1.72813508 -0.00000150  6.42507451
   0.86406624  1.49660917  3.69977692
  -0.00000000  0.00000000 40.62179923
   1.72813508 -0.00000150 46.16994290
   0.86406624  1.49660917 43.44476969
 


--------------------------------------------------------------------------------------------------------


 k-point  1 :   0.0000 0.0000 0.0000  plane waves:   10065
 k-point  2 :   0.0769 0.0000 0.0000  plane waves:   10081
 k-point  3 :   0.1538 0.0000-0.0000  plane waves:   10037
 k-point  4 :   0.2308 0.0000 0.0000  plane waves:   10002
 k-point  5 :   0.3077 0.0000-0.0000  plane waves:    9938
 k-point  6 :   0.3846 0.0000 0.0000  plane waves:    9874
 k-point  7 :   0.4615 0.0000 0.0000  plane waves:    9882
 k-point  8 :   0.0769 0.0769 0.0000  plane waves:   10043
 k-point  9 :   0.1538 0.0769 0.0000  plane waves:   10010
 k-point 10 :   0.2308 0.0769-0.0000  plane waves:    9951
 k-point 11 :   0.3077 0.0769-0.0000  plane waves:    9932
 k-point 12 :   0.3846 0.0769-0.0000  plane waves:    9886
 k-point 13 :   0.4615 0.0769-0.0000  plane waves:    9852
 k-point 14 :   0.1538 0.1538 0.0000  plane waves:    9971
 k-point 15 :   0.2308 0.1538 0.0000  plane waves:    9926
 k-point 16 :   0.3077 0.1538 0.0000  plane waves:    9924
 k-point 17 :   0.3846 0.1538 0.0000  plane waves:    9872
 k-point 18 :   0.2308 0.2308 0.0000  plane waves:    9926
 k-point 19 :   0.3077 0.2308-0.0000  plane waves:    9881
 k-point 20 :   0.3846 0.2308 0.0000  plane waves:    9910
 k-point 21 :   0.3077 0.3077 0.0000  plane waves:    9926

 maximum and minimum number of plane-waves per node :      2557     2436

 maximum number of plane-waves:     10081
 maximum index in each direction: 
   IXMAX=    5   IYMAX=    5   IZMAX=   88
   IXMIN=   -6   IYMIN=   -5   IZMIN=  -88

 NGX is ok and might be reduce to  24
 NGY is ok and might be reduce to  22
 NGZ is ok and might be reduce to 354

 parallel 3D FFT for wavefunctions:
    minimum data exchange during FFTs selected (reduces bandwidth)
 parallel 3D FFT for charge:
    minimum data exchange during FFTs selected (reduces bandwidth)


 total amount of memory used by VASP on root node   164079. kBytes
========================================================================

   base      :      30000. kBytes
   nonl-proj :      17906. kBytes
   fftplans  :      62073. kBytes
   grid      :      24883. kBytes
   one-center:         56. kBytes
   wavefun   :      29161. kBytes
 
     INWAV:  cpu time    0.00: real time    0.00
 Broyden mixing: mesh for mixing (old mesh)
   NGX = 11   NGY = 11   NGZ =177
  (NGX  = 48   NGY  = 48   NGZ  =720)
  gives a total of  21417 points

 initial charge density was supplied:
 charge density of overlapping atoms calculated
 number of electron     103.0000000 magnetization 
 keeping initial charge density in first step


--------------------------------------------------------------------------------------------------------


 Maximum index for augmentation-charges        23007 (set IRDMAX)


--------------------------------------------------------------------------------------------------------


 First call to EWALD:  gamma=   0.247
 Maximum number of real-space cells 7x 7x 1
 Maximum number of reciprocal cells 1x 1x15

 FEWALD executed in parallel
    FEWALD:  cpu time    0.00: real time    0.00


----------------------------------------- Iteration    1(   1)  ---------------------------------------


    POTLOK:  cpu time    0.12: real time    0.12
    SETDIJ:  cpu time    0.12: real time    0.12
     EDDAV:  cpu time    5.01: real time    5.06
       DOS:  cpu time    0.00: real time    0.00
    --------------------------------------------
      LOOP:  cpu time    5.26: real time    5.30

 eigenvalue-minimisations  :  2788
 total energy-change (2. order) : 0.5333709E+03  (-0.4480419E+04)
 number of electron     103.0000000 magnetization 
 augmentation part      103.0000000 magnetization 

 Free energy of the ion-electron system (eV)
  ---------------------------------------------------
  alpha Z        PSCENC =       131.55364102
  Ewald energy   TEWEN  =     23084.61867396
  -Hartree energ DENC   =    -28255.75430186
  -exchange      EXHF   =         0.00000000
  -V(xc)+E(xc)   XCENC  =      -441.75833041
  PAW double counting   =      4647.26951674    -3871.08436696
  entropy T*S    EENTRO =        -0.00512874
  eigenvalues    EBANDS =       286.77663302
  atomic energy  EATOM  =      4951.75456612
  ---------------------------------------------------
  free energy    TOTEN  =       533.37090289 eV

  energy without entropy =      533.37603164  energy(sigma->0) =      533.37346727


--------------------------------------------------------------------------------------------------------




----------------------------------------- Iteration    1(   2)  ---------------------------------------


     EDDAV:  cpu time    6.02: real time    6.03
       DOS:  cpu time    0.00: real time    0.00
    --------------------------------------------
      LOOP:  cpu time    6.02: real time    6.03

 eigenvalue-minimisations  :  3590
 total energy-change (2. order) :-0.6286316E+03  (-0.5959138E+03)
 number of electron     103.0000000 magnetization 
 augmentation part      103.0000000 magnetization 

 Free energy of the ion-electron system (eV)
  ---------------------------------------------------
  alpha Z        PSCENC =       131.55364102
  Ewald energy   TEWEN  =     23084.61867396
  -Hartree energ DENC   =    -28255.75430186
  -exchange      EXHF   =         0.00000000
  -V(xc)+E(xc)   XCENC  =      -441.75833041
  PAW double counting   =      4647.26951674    -3871.08436696
  entropy T*S    EENTRO =        -0.00529900
  eigenvalues    EBANDS =      -341.85480427
  atomic energy  EATOM  =      4951.75456612
  ---------------------------------------------------
  free energy    TOTEN  =       -95.26070466 eV

  energy without entropy =      -95.25540566  energy(sigma->0) =      -95.25805516


--------------------------------------------------------------------------------------------------------




----------------------------------------- Iteration    1(   3)  ---------------------------------------


     EDDAV:  cpu time    5.43: real time    5.44
       DOS:  cpu time    0.00: real time    0.00
    --------------------------------------------
      LOOP:  cpu time    5.43: real time    5.44

 eigenvalue-minimisations  :  3240
 total energy-change (2. order) :-0.6440177E+02  (-0.6407760E+02)
 number of electron     103.0000000 magnetization 
 augmentation part      103.0000000 magnetization 

 Free energy of the ion-electron system (eV)
  ---------------------------------------------------
  alpha Z        PSCENC =       131.55364102
  Ewald energy   TEWEN  =     23084.61867396
  -Hartree energ DENC   =    -28255.75430186
  -exchange      EXHF   =         0.00000000
  -V(xc)+E(xc)   XCENC  =      -441.75833041
  PAW double counting   =      4647.26951674    -3871.08436696
  entropy T*S    EENTRO =        -0.00349348
  eigenvalues    EBANDS =      -406.25837770
  atomic energy  EATOM  =      4951.75456612
  ---------------------------------------------------
  free energy    TOTEN  =      -159.66247256 eV

  energy without entropy =     -159.65897908  energy(sigma->0) =     -159.66072582


--------------------------------------------------------------------------------------------------------




----------------------------------------- Iteration    1(   4)  ---------------------------------------


     EDDAV:  cpu time    5.57: real time    5.57
       DOS:  cpu time    0.00: real time    0.00
    --------------------------------------------
      LOOP:  cpu time    5.57: real time    5.58

 eigenvalue-minimisations  :  3208
 total energy-change (2. order) :-0.8882787E+00  (-0.8865408E+00)
 number of electron     103.0000000 magnetization 
 augmentation part      103.0000000 magnetization 

 Free energy of the ion-electron system (eV)
  ---------------------------------------------------
  alpha Z        PSCENC =       131.55364102
  Ewald energy   TEWEN  =     23084.61867396
  -Hartree energ DENC   =    -28255.75430186
  -exchange      EXHF   =         0.00000000
  -V(xc)+E(xc)   XCENC  =      -441.75833041
  PAW double counting   =      4647.26951674    -3871.08436696
  entropy T*S    EENTRO =        -0.00298397
  eigenvalues    EBANDS =      -407.14716594
  atomic energy  EATOM  =      4951.75456612
  ---------------------------------------------------
  free energy    TOTEN  =      -160.55075130 eV

  energy without entropy =     -160.54776732  energy(sigma->0) =     -160.54925931


--------------------------------------------------------------------------------------------------------




----------------------------------------- Iteration    1(   5)  ---------------------------------------


     EDDAV:  cpu time    5.98: real time    5.99
       DOS:  cpu time    0.00: real time    0.00
    CHARGE:  cpu time    0.46: real time    0.46
    MIXING:  cpu time    0.00: real time    0.00
    --------------------------------------------
      LOOP:  cpu time    6.44: real time    6.45

 eigenvalue-minimisations  :  3326
 total energy-change (2. order) :-0.1427503E-01  (-0.1426900E-01)
 number of electron     103.0000001 magnetization 
 augmentation part        7.6894058 magnetization 

 Broyden mixing:
  rms(total) = 0.23118E+01    rms(broyden)= 0.23113E+01
  rms(prec ) = 0.23588E+01
  weight for this iteration     100.00

 Free energy of the ion-electron system (eV)
  ---------------------------------------------------
  alpha Z        PSCENC =       131.55364102
  Ewald energy   TEWEN  =     23084.61867396
  -Hartree energ DENC   =    -28255.75430186
  -exchange      EXHF   =         0.00000000
  -V(xc)+E(xc)   XCENC  =      -441.75833041
  PAW double counting   =      4647.26951674    -3871.08436696
  entropy T*S    EENTRO =        -0.00297714
  eigenvalues    EBANDS =      -407.16144779
  atomic energy  EATOM  =      4951.75456612
  ---------------------------------------------------
  free energy    TOTEN  =      -160.56502632 eV

  energy without entropy =     -160.56204918  energy(sigma->0) =     -160.56353775


--------------------------------------------------------------------------------------------------------




----------------------------------------- Iteration    1(   6)  ---------------------------------------


    POTLOK:  cpu time    0.11: real time    0.11
    SETDIJ:  cpu time    0.11: real time    0.11
     EDDAV:  cpu time    5.48: real time    5.49
       DOS:  cpu time    0.00: real time    0.00
    CHARGE:  cpu time    0.43: real time    0.43
    MIXING:  cpu time    0.00: real time    0.00
    --------------------------------------------
      LOOP:  cpu time    6.13: real time    6.14

 eigenvalue-minimisations  :  3158
 total energy-change (2. order) : 0.1613695E+02  (-0.9456936E+01)
 number of electron     103.0000001 magnetization 
 augmentation part        6.1938447 magnetization 

 Broyden mixing:
  rms(total) = 0.79078E+00    rms(broyden)= 0.78984E+00
  rms(prec ) = 0.79651E+00
  weight for this iteration     100.00

 eigenvalues of (default mixing * dielectric matrix)
  average eigenvalue GAMMA=   0.8317
  0.8317

 Free energy of the ion-electron system (eV)
  ---------------------------------------------------
  alpha Z        PSCENC =       131.55364102
  Ewald energy   TEWEN  =     23084.61867396
  -Hartree energ DENC   =    -28451.92961323
  -exchange      EXHF   =         0.00000000
  -V(xc)+E(xc)   XCENC  =      -428.24825082
  PAW double counting   =      5457.12890953    -4684.34265467
  entropy T*S    EENTRO =        -0.00667870
  eigenvalues    EBANDS =      -204.95666773
  atomic energy  EATOM  =      4951.75456612
  ---------------------------------------------------
  free energy    TOTEN  =      -144.42807452 eV

  energy without entropy =     -144.42139582  energy(sigma->0) =     -144.42473517


--------------------------------------------------------------------------------------------------------




----------------------------------------- Iteration    1(   7)  ---------------------------------------


    POTLOK:  cpu time    0.11: real time    0.11
    SETDIJ:  cpu time    0.11: real time    0.11
     EDDAV:  cpu time    5.35: real time    5.36
       DOS:  cpu time    0.00: real time    0.00
    CHARGE:  cpu time    0.43: real time    0.43
    MIXING:  cpu time    0.00: real time    0.00
    --------------------------------------------
      LOOP:  cpu time    6.00: real time    6.01

 eigenvalue-minimisations  :  3044
 total energy-change (2. order) : 0.1389883E+00  (-0.1957806E+00)
 number of electron     103.0000001 magnetization 
 augmentation part        6.2462601 magnetization 

 Broyden mixing:
  rms(total) = 0.48001E+00    rms(broyden)= 0.48000E+00
  rms(prec ) = 0.48422E+00
  weight for this iteration     100.00

 eigenvalues of (default mixing * dielectric matrix)
  average eigenvalue GAMMA=   1.6470
  0.9688  2.3252

 Free energy of the ion-electron system (eV)
  ---------------------------------------------------
  alpha Z        PSCENC =       131.55364102
  Ewald energy   TEWEN  =     23084.61867396
  -Hartree energ DENC   =    -28448.89987496
  -exchange      EXHF   =         0.00000000
  -V(xc)+E(xc)   XCENC  =      -427.99941520
  PAW double counting   =      5712.04366026    -4938.74570435
  entropy T*S    EENTRO =        -0.00477372
  eigenvalues    EBANDS =      -208.60985936
  atomic energy  EATOM  =      4951.75456612
  ---------------------------------------------------
  free energy    TOTEN  =      -144.28908623 eV

  energy without entropy =     -144.28431251  energy(sigma->0) =     -144.28669937


--------------------------------------------------------------------------------------------------------




----------------------------------------- Iteration    1(   8)  ---------------------------------------


    POTLOK:  cpu time    0.11: real time    0.11
    SETDIJ:  cpu time    0.11: real time    0.11
     EDDAV:  cpu time    5.46: real time    5.47
       DOS:  cpu time    0.00: real time    0.00
    CHARGE:  cpu time    0.43: real time    0.43
    MIXING:  cpu time    0.00: real time    0.00
    --------------------------------------------
      LOOP:  cpu time    6.12: real time    6.13

 eigenvalue-minimisations  :  3174
 total energy-change (2. order) : 0.1007675E+00  (-0.6478354E-01)
 number of electron     103.0000001 magnetization 
 augmentation part        6.3057468 magnetization 

 Broyden mixing:
  rms(total) = 0.90810E-01    rms(broyden)= 0.90755E-01
  rms(prec ) = 0.11278E+00
  weight for this iteration     100.00

 eigenvalues of (default mixing * dielectric matrix)
  average eigenvalue GAMMA=   1.3559
  2.4343  0.9246  0.7088

 Free energy of the ion-electron system (eV)
  ---------------------------------------------------
  alpha Z        PSCENC =       131.55364102
  Ewald energy   TEWEN  =     23084.61867396
  -Hartree energ DENC   =    -28454.73273512
  -exchange      EXHF   =         0.00000000
  -V(xc)+E(xc)   XCENC  =      -426.55776341
  PAW double counting   =      6167.65580454    -5393.97425472
  entropy T*S    EENTRO =        -0.00418377
  eigenvalues    EBANDS =      -204.50206734
  atomic energy  EATOM  =      4951.75456612
  ---------------------------------------------------
  free energy    TOTEN  =      -144.18831873 eV

  energy without entropy =     -144.18413496  energy(sigma->0) =     -144.18622684


--------------------------------------------------------------------------------------------------------




----------------------------------------- Iteration    1(   9)  ---------------------------------------


    POTLOK:  cpu time    0.11: real time    0.11
    SETDIJ:  cpu time    0.10: real time    0.11
     EDDAV:  cpu time    5.44: real time    5.45
       DOS:  cpu time    0.00: real time    0.00
    CHARGE:  cpu time    0.43: real time    0.43
    MIXING:  cpu time    0.00: real time    0.00
    --------------------------------------------
      LOOP:  cpu time    6.09: real time    6.10

 eigenvalue-minimisations  :  3138
 total energy-change (2. order) : 0.2746563E-01  (-0.1470754E-01)
 number of electron     103.0000001 magnetization 
 augmentation part        6.2842346 magnetization 

 Broyden mixing:
  rms(total) = 0.55417E-01    rms(broyden)= 0.55416E-01
  rms(prec ) = 0.56412E-01
  weight for this iteration     100.00

 eigenvalues of (default mixing * dielectric matrix)
  average eigenvalue GAMMA=   1.3177
  2.4551  0.9672  0.9243  0.9243

 Free energy of the ion-electron system (eV)
  ---------------------------------------------------
  alpha Z        PSCENC =       131.55364102
  Ewald energy   TEWEN  =     23084.61867396
  -Hartree energ DENC   =    -28459.10734935
  -exchange      EXHF   =         0.00000000
  -V(xc)+E(xc)   XCENC  =      -426.20148794
  PAW double counting   =      6187.25644549    -5413.61853485
  entropy T*S    EENTRO =        -0.00411023
  eigenvalues    EBANDS =      -200.41269731
  atomic energy  EATOM  =      4951.75456612
  ---------------------------------------------------
  free energy    TOTEN  =      -144.16085310 eV

  energy without entropy =     -144.15674286  energy(sigma->0) =     -144.15879798


--------------------------------------------------------------------------------------------------------




----------------------------------------- Iteration    1(  10)  ---------------------------------------


    POTLOK:  cpu time    0.11: real time    0.11
    SETDIJ:  cpu time    0.11: real time    0.11
     EDDAV:  cpu time    5.35: real time    5.35
       DOS:  cpu time    0.00: real time    0.00
    CHARGE:  cpu time    0.44: real time    0.44
    MIXING:  cpu time    0.01: real time    0.01
    --------------------------------------------
      LOOP:  cpu time    6.01: real time    6.02

 eigenvalue-minimisations  :  3116
 total energy-change (2. order) : 0.2118888E-02  (-0.3278552E-02)
 number of electron     103.0000001 magnetization 
 augmentation part        6.2664973 magnetization 

 Broyden mixing:
  rms(total) = 0.27052E-01    rms(broyden)= 0.27038E-01
  rms(prec ) = 0.27826E-01
  weight for this iteration     100.00

 eigenvalues of (default mixing * dielectric matrix)
  average eigenvalue GAMMA=   1.2521
  2.5078  1.5401  0.8873  0.8873  0.4383

 Free energy of the ion-electron system (eV)
  ---------------------------------------------------
  alpha Z        PSCENC =       131.55364102
  Ewald energy   TEWEN  =     23084.61867396
  -Hartree energ DENC   =    -28460.98737902
  -exchange      EXHF   =         0.00000000
  -V(xc)+E(xc)   XCENC  =      -426.04471871
  PAW double counting   =      6179.33192162    -5405.72363835
  entropy T*S    EENTRO =        -0.00460955
  eigenvalues    EBANDS =      -198.65719130
  atomic energy  EATOM  =      4951.75456612
  ---------------------------------------------------
  free energy    TOTEN  =      -144.15873421 eV

  energy without entropy =     -144.15412466  energy(sigma->0) =     -144.15642944


--------------------------------------------------------------------------------------------------------




----------------------------------------- Iteration    1(  11)  ---------------------------------------


    POTLOK:  cpu time    0.12: real time    0.12
    SETDIJ:  cpu time    0.11: real time    0.11
     EDDAV:  cpu time    5.52: real time    5.53
       DOS:  cpu time    0.00: real time    0.00
    CHARGE:  cpu time    0.43: real time    0.43
    MIXING:  cpu time    0.00: real time    0.00
    --------------------------------------------
      LOOP:  cpu time    6.18: real time    6.19

 eigenvalue-minimisations  :  3164
 total energy-change (2. order) :-0.1099072E-02  (-0.5070339E-03)
 number of electron     103.0000001 magnetization 
 augmentation part        6.2636979 magnetization 

 Broyden mixing:
  rms(total) = 0.15234E-01    rms(broyden)= 0.15231E-01
  rms(prec ) = 0.15726E-01
  weight for this iteration     100.00

 eigenvalues of (default mixing * dielectric matrix)
  average eigenvalue GAMMA=   1.3631
  2.7410  2.1996  0.9727  0.8060  0.8060  0.6534

 Free energy of the ion-electron system (eV)
  ---------------------------------------------------
  alpha Z        PSCENC =       131.55364102
  Ewald energy   TEWEN  =     23084.61867396
  -Hartree energ DENC   =    -28461.93098885
  -exchange      EXHF   =         0.00000000
  -V(xc)+E(xc)   XCENC  =      -425.95093453
  PAW double counting   =      6155.41010872    -5381.81645726
  entropy T*S    EENTRO =        -0.00462509
  eigenvalues    EBANDS =      -197.79381737
  atomic energy  EATOM  =      4951.75456612
  ---------------------------------------------------
  free energy    TOTEN  =      -144.15983328 eV

  energy without entropy =     -144.15520820  energy(sigma->0) =     -144.15752074


--------------------------------------------------------------------------------------------------------




----------------------------------------- Iteration    1(  12)  ---------------------------------------


    POTLOK:  cpu time    0.11: real time    0.11
    SETDIJ:  cpu time    0.11: real time    0.11
     EDDAV:  cpu time    6.01: real time    6.02
       DOS:  cpu time    0.00: real time    0.00
    CHARGE:  cpu time    0.43: real time    0.43
    MIXING:  cpu time    0.00: real time    0.00
    --------------------------------------------
      LOOP:  cpu time    6.67: real time    6.68

 eigenvalue-minimisations  :  3566
 total energy-change (2. order) :-0.1850841E-03  (-0.1001317E-03)
 number of electron     103.0000001 magnetization 
 augmentation part        6.2608744 magnetization 

 Broyden mixing:
  rms(total) = 0.77468E-02    rms(broyden)= 0.77460E-02
  rms(prec ) = 0.82010E-02
  weight for this iteration     100.00

 eigenvalues of (default mixing * dielectric matrix)
  average eigenvalue GAMMA=   1.3705
  2.8156  2.4464  1.0037  1.0037  0.8597  0.8597  0.6044

 Free energy of the ion-electron system (eV)
  ---------------------------------------------------
  alpha Z        PSCENC =       131.55364102
  Ewald energy   TEWEN  =     23084.61867396
  -Hartree energ DENC   =    -28462.64603572
  -exchange      EXHF   =         0.00000000
  -V(xc)+E(xc)   XCENC  =      -425.88812209
  PAW double counting   =      6134.92036113    -5361.34473815
  entropy T*S    EENTRO =        -0.00458666
  eigenvalues    EBANDS =      -197.12377797
  atomic energy  EATOM  =      4951.75456612
  ---------------------------------------------------
  free energy    TOTEN  =      -144.16001837 eV

  energy without entropy =     -144.15543171  energy(sigma->0) =     -144.15772504


--------------------------------------------------------------------------------------------------------




----------------------------------------- Iteration    1(  13)  ---------------------------------------


    POTLOK:  cpu time    0.11: real time    0.11
    SETDIJ:  cpu time    0.11: real time    0.11
     EDDAV:  cpu time    5.64: real time    5.65
       DOS:  cpu time    0.00: real time    0.00
    CHARGE:  cpu time    0.43: real time    0.43
    MIXING:  cpu time    0.01: real time    0.01
    --------------------------------------------
      LOOP:  cpu time    6.30: real time    6.31

 eigenvalue-minimisations  :  3278
 total energy-change (2. order) : 0.9359349E-04  (-0.8419596E-04)
 number of electron     103.0000001 magnetization 
 augmentation part        6.2635039 magnetization 

 Broyden mixing:
  rms(total) = 0.25454E-02    rms(broyden)= 0.25419E-02
  rms(prec ) = 0.34029E-02
  weight for this iteration     100.00

 eigenvalues of (default mixing * dielectric matrix)
  average eigenvalue GAMMA=   1.2876
  2.8604  2.4583  0.9578  0.9578  0.8044  0.8044  0.8542  0.6037

 Free energy of the ion-electron system (eV)
  ---------------------------------------------------
  alpha Z        PSCENC =       131.55364102
  Ewald energy   TEWEN  =     23084.61867396
  -Hartree energ DENC   =    -28462.47263350
  -exchange      EXHF   =         0.00000000
  -V(xc)+E(xc)   XCENC  =      -425.90716503
  PAW double counting   =      6126.51158084    -5352.93329408
  entropy T*S    EENTRO =        -0.00455988
  eigenvalues    EBANDS =      -197.28073423
  atomic energy  EATOM  =      4951.75456612
  ---------------------------------------------------
  free energy    TOTEN  =      -144.15992477 eV

  energy without entropy =     -144.15536490  energy(sigma->0) =     -144.15764484


--------------------------------------------------------------------------------------------------------




----------------------------------------- Iteration    1(  14)  ---------------------------------------


    POTLOK:  cpu time    0.11: real time    0.11
    SETDIJ:  cpu time    0.11: real time    0.11
     EDDAV:  cpu time    5.49: real time    5.50
       DOS:  cpu time    0.00: real time    0.00
    CHARGE:  cpu time    0.43: real time    0.43
    MIXING:  cpu time    0.01: real time    0.01
    --------------------------------------------
      LOOP:  cpu time    6.16: real time    6.17

 eigenvalue-minimisations  :  3084
 total energy-change (2. order) : 0.3428761E-04  (-0.1706599E-04)
 number of electron     103.0000001 magnetization 
 augmentation part        6.2642476 magnetization 

 Broyden mixing:
  rms(total) = 0.99396E-03    rms(broyden)= 0.99288E-03
  rms(prec ) = 0.23988E-02
  weight for this iteration     100.00

 eigenvalues of (default mixing * dielectric matrix)
  average eigenvalue GAMMA=   1.3272
  2.8194  2.4964  1.1013  1.1013  0.6006  1.0578  1.0578  0.8552  0.8552

 Free energy of the ion-electron system (eV)
  ---------------------------------------------------
  alpha Z        PSCENC =       131.55364102
  Ewald energy   TEWEN  =     23084.61867396
  -Hartree energ DENC   =    -28462.50412174
  -exchange      EXHF   =         0.00000000
  -V(xc)+E(xc)   XCENC  =      -425.91348860
  PAW double counting   =      6124.96934553    -5351.39064485
  entropy T*S    EENTRO =        -0.00456566
  eigenvalues    EBANDS =      -197.24329625
  atomic energy  EATOM  =      4951.75456612
  ---------------------------------------------------
  free energy    TOTEN  =      -144.15989049 eV

  energy without entropy =     -144.15532482  energy(sigma->0) =     -144.15760766


--------------------------------------------------------------------------------------------------------




----------------------------------------- Iteration    1(  15)  ---------------------------------------


    POTLOK:  cpu time    0.11: real time    0.11
    SETDIJ:  cpu time    0.11: real time    0.11
     EDDAV:  cpu time    4.10: real time    4.11
       DOS:  cpu time    0.00: real time    0.00
    CHARGE:  cpu time    0.43: real time    0.43
    MIXING:  cpu time    0.01: real time    0.01
    --------------------------------------------
      LOOP:  cpu time    4.77: real time    4.78

 eigenvalue-minimisations  :  2050
 total energy-change (2. order) : 0.3426076E-04  (-0.1587254E-05)
 number of electron     103.0000001 magnetization 
 augmentation part        6.2643224 magnetization 

 Broyden mixing:
  rms(total) = 0.76212E-03    rms(broyden)= 0.76201E-03
  rms(prec ) = 0.22305E-02
  weight for this iteration     100.00

 eigenvalues of (default mixing * dielectric matrix)
  average eigenvalue GAMMA=   1.3947
  2.9219  2.5116  2.1290  1.0605  1.0605  0.6023  0.9786  0.9786  0.8521  0.8521

 Free energy of the ion-electron system (eV)
  ---------------------------------------------------
  alpha Z        PSCENC =       131.55364102
  Ewald energy   TEWEN  =     23084.61867396
  -Hartree energ DENC   =    -28462.62486407
  -exchange      EXHF   =         0.00000000
  -V(xc)+E(xc)   XCENC  =      -425.91588344
  PAW double counting   =      6124.70325745    -5351.12415906
  entropy T*S    EENTRO =        -0.00456475
  eigenvalues    EBANDS =      -197.12052346
  atomic energy  EATOM  =      4951.75456612
  ---------------------------------------------------
  free energy    TOTEN  =      -144.15985623 eV

  energy without entropy =     -144.15529148  energy(sigma->0) =     -144.15757385


--------------------------------------------------------------------------------------------------------




----------------------------------------- Iteration    1(  16)  ---------------------------------------


    POTLOK:  cpu time    0.11: real time    0.11
    SETDIJ:  cpu time    0.11: real time    0.11
     EDDAV:  cpu time    5.21: real time    5.22
       DOS:  cpu time    0.00: real time    0.00
    CHARGE:  cpu time    0.42: real time    0.42
    MIXING:  cpu time    0.01: real time    0.01
    --------------------------------------------
      LOOP:  cpu time    5.86: real time    5.87

 eigenvalue-minimisations  :  3012
 total energy-change (2. order) : 0.7619857E-04  (-0.6037692E-05)
 number of electron     103.0000001 magnetization 
 augmentation part        6.2642770 magnetization 

 Broyden mixing:
  rms(total) = 0.16515E-02    rms(broyden)= 0.16514E-02
  rms(prec ) = 0.24625E-02
  weight for this iteration     100.00

 eigenvalues of (default mixing * dielectric matrix)
  average eigenvalue GAMMA=   1.4322
  3.0544  2.5618  2.5618  1.1292  1.1292  0.6018  1.0648  1.0648  0.8602  0.8602
  0.8660

 Free energy of the ion-electron system (eV)
  ---------------------------------------------------
  alpha Z        PSCENC =       131.55364102
  Ewald energy   TEWEN  =     23084.61867396
  -Hartree energ DENC   =    -28463.01038843
  -exchange      EXHF   =         0.00000000
  -V(xc)+E(xc)   XCENC  =      -425.91776982
  PAW double counting   =      6124.27469545    -5350.69521527
  entropy T*S    EENTRO =        -0.00456559
  eigenvalues    EBANDS =      -196.73341748
  atomic energy  EATOM  =      4951.75456612
  ---------------------------------------------------
  free energy    TOTEN  =      -144.15978003 eV

  energy without entropy =     -144.15521444  energy(sigma->0) =     -144.15749723


--------------------------------------------------------------------------------------------------------




----------------------------------------- Iteration    1(  17)  ---------------------------------------


    POTLOK:  cpu time    0.11: real time    0.11
    SETDIJ:  cpu time    0.11: real time    0.11
     EDDAV:  cpu time    6.07: real time    6.08
       DOS:  cpu time    0.00: real time    0.00
    CHARGE:  cpu time    0.43: real time    0.43
    MIXING:  cpu time    0.01: real time    0.01
    --------------------------------------------
      LOOP:  cpu time    6.73: real time    6.74

 eigenvalue-minimisations  :  3612
 total energy-change (2. order) : 0.7479781E-04  (-0.1153871E-04)
 number of electron     103.0000001 magnetization 
 augmentation part        6.2644162 magnetization 

 Broyden mixing:
  rms(total) = 0.17571E-02    rms(broyden)= 0.17570E-02
  rms(prec ) = 0.21918E-02
  weight for this iteration     100.00

 eigenvalues of (default mixing * dielectric matrix)
  average eigenvalue GAMMA=   1.5117
  3.9520  2.7450  2.4741  1.3450  1.3450  0.6017  1.0469  1.0469  0.8644  0.8644
  0.9276  0.9276

 Free energy of the ion-electron system (eV)
  ---------------------------------------------------
  alpha Z        PSCENC =       131.55364102
  Ewald energy   TEWEN  =     23084.61867396
  -Hartree energ DENC   =    -28463.51339276
  -exchange      EXHF   =         0.00000000
  -V(xc)+E(xc)   XCENC  =      -425.92085648
  PAW double counting   =      6124.79697152    -5351.21723519
  entropy T*S    EENTRO =        -0.00456667
  eigenvalues    EBANDS =      -196.22750676
  atomic energy  EATOM  =      4951.75456612
  ---------------------------------------------------
  free energy    TOTEN  =      -144.15970523 eV

  energy without entropy =     -144.15513856  energy(sigma->0) =     -144.15742189


--------------------------------------------------------------------------------------------------------




----------------------------------------- Iteration    1(  18)  ---------------------------------------


    POTLOK:  cpu time    0.11: real time    0.11
    SETDIJ:  cpu time    0.11: real time    0.11
     EDDAV:  cpu time    7.04: real time    7.05
       DOS:  cpu time    0.00: real time    0.00
    CHARGE:  cpu time    0.44: real time    0.44
    MIXING:  cpu time    0.01: real time    0.01
    --------------------------------------------
      LOOP:  cpu time    7.72: real time    7.73

 eigenvalue-minimisations  :  4376
 total energy-change (2. order) : 0.3945558E-04  (-0.3629045E-04)
 number of electron     103.0000001 magnetization 
 augmentation part        6.2643828 magnetization 

 Broyden mixing:
  rms(total) = 0.13536E-02    rms(broyden)= 0.13530E-02
  rms(prec ) = 0.14349E-02
  weight for this iteration     100.00

 eigenvalues of (default mixing * dielectric matrix)
  average eigenvalue GAMMA=   1.6532
  5.7013  2.8133  2.3570  1.7602  1.4045  1.0987  1.0987  0.6018  1.0178  1.0178
  0.8715  0.8715  0.8769

 Free energy of the ion-electron system (eV)
  ---------------------------------------------------
  alpha Z        PSCENC =       131.55364102
  Ewald energy   TEWEN  =     23084.61867396
  -Hartree energ DENC   =    -28464.46627450
  -exchange      EXHF   =         0.00000000
  -V(xc)+E(xc)   XCENC  =      -425.92172363
  PAW double counting   =      6124.59791827    -5351.01872369
  entropy T*S    EENTRO =        -0.00457032
  eigenvalues    EBANDS =      -195.27317300
  atomic energy  EATOM  =      4951.75456612
  ---------------------------------------------------
  free energy    TOTEN  =      -144.15966577 eV

  energy without entropy =     -144.15509545  energy(sigma->0) =     -144.15738061


--------------------------------------------------------------------------------------------------------




----------------------------------------- Iteration    1(  19)  ---------------------------------------


    POTLOK:  cpu time    0.12: real time    0.12
    SETDIJ:  cpu time    0.11: real time    0.11
     EDDAV:  cpu time    5.34: real time    5.35
       DOS:  cpu time    0.00: real time    0.00
    CHARGE:  cpu time    0.44: real time    0.44
    MIXING:  cpu time    0.01: real time    0.01
    --------------------------------------------
      LOOP:  cpu time    6.02: real time    6.03

 eigenvalue-minimisations  :  3080
 total energy-change (2. order) :-0.5223026E-04  (-0.4209228E-04)
 number of electron     103.0000001 magnetization 
 augmentation part        6.2644518 magnetization 

 Broyden mixing:
  rms(total) = 0.21418E-02    rms(broyden)= 0.21413E-02
  rms(prec ) = 0.21769E-02
  weight for this iteration     100.00

 eigenvalues of (default mixing * dielectric matrix)
  average eigenvalue GAMMA=   1.5354
  5.5752  2.8087  2.3521  1.8371  1.3630  1.0895  1.0895  0.6018  1.0028  1.0028
  0.8766  0.8766  0.8575  0.1620

 Free energy of the ion-electron system (eV)
  ---------------------------------------------------
  alpha Z        PSCENC =       131.55364102
  Ewald energy   TEWEN  =     23084.61867396
  -Hartree energ DENC   =    -28464.77458838
  -exchange      EXHF   =         0.00000000
  -V(xc)+E(xc)   XCENC  =      -425.91976388
  PAW double counting   =      6124.76871288    -5351.18912142
  entropy T*S    EENTRO =        -0.00457508
  eigenvalues    EBANDS =      -194.96726322
  atomic energy  EATOM  =      4951.75456612
  ---------------------------------------------------
  free energy    TOTEN  =      -144.15971800 eV

  energy without entropy =     -144.15514292  energy(sigma->0) =     -144.15743046


--------------------------------------------------------------------------------------------------------




----------------------------------------- Iteration    1(  20)  ---------------------------------------


    POTLOK:  cpu time    0.11: real time    0.12
    SETDIJ:  cpu time    0.13: real time    0.13
     EDDAV:  cpu time    4.86: real time    4.87
       DOS:  cpu time    0.00: real time    0.00
    --------------------------------------------
      LOOP:  cpu time    5.10: real time    5.11

 eigenvalue-minimisations  :  2644
 total energy-change (2. order) : 0.2094777E-05  (-0.7545231E-05)
 number of electron     103.0000001 magnetization 
 augmentation part        6.2644518 magnetization 

 Free energy of the ion-electron system (eV)
  ---------------------------------------------------
  alpha Z        PSCENC =       131.55364102
  Ewald energy   TEWEN  =     23084.61867396
  -Hartree energ DENC   =    -28464.73265474
  -exchange      EXHF   =         0.00000000
  -V(xc)+E(xc)   XCENC  =      -425.91913212
  PAW double counting   =      6124.77738352    -5351.19769824
  entropy T*S    EENTRO =        -0.00457572
  eigenvalues    EBANDS =      -195.00991970
  atomic energy  EATOM  =      4951.75456612
  ---------------------------------------------------
  free energy    TOTEN  =      -144.15971591 eV

  energy without entropy =     -144.15514019  energy(sigma->0) =     -144.15742805


--------------------------------------------------------------------------------------------------------




 average (electrostatic) potential at core
  the test charge radii are     0.7215  1.0714  1.0406
  (the norm of the test charge is              1.0000)
       1 -70.5521       2 -70.4384       3 -70.4175       4 -70.3994       5 -70.3868
       6 -70.3847       7 -70.5552       8 -70.4209       9 -70.3877      10 -70.4140
      11 -36.1206      12 -36.0840      13 -36.0871      14 -36.1538      15 -36.0996
      16 -36.0769      17 -36.4942      18 -36.4756      19 -36.1135      20 -36.0768
      21 -36.1411      22 -75.0304      23 -75.0882      24 -75.1567      25 -75.0727
      26 -75.1061      27 -75.0803      28 -75.1731
 
 
 
 E-fermi :   5.7550     XC(G=0): -10.0687     alpha+bet :-11.7831


 k-point     1 :       0.0000    0.0000    0.0000
  band No.  band energies     occupation 
      1     -14.6131      2.00000
      2     -14.5665      2.00000
      3     -14.4888      2.00000
      4     -14.3785      2.00000
      5     -14.2414      2.00000
      6     -14.0943      2.00000
      7     -13.9461      2.00000
      8     -13.8042      2.00000
      9     -13.6895      2.00000
     10     -13.6034      2.00000
     11      -3.8720      2.00000
     12      -3.3873      2.00000
     13      -3.0253      2.00000
     14      -2.5547      2.00000
     15      -2.1684      2.00000
     16      -1.9935      2.00000
     17      -1.9758      2.00000
     18      -1.6152      2.00000
     19      -1.4674      2.00000
     20      -1.0195      2.00000
     21      -0.8931      2.00000
     22      -0.3099      2.00000
     23      -0.0128      2.00000
     24       0.3866      2.00000
     25       0.8138      2.00000
     26       1.4326      2.00000
     27       1.7734      2.00000
     28       1.9416      2.00000
     29       1.9416      2.00000
     30       1.9686      2.00000
     31       1.9686      2.00000
     32       2.0050      2.00000
     33       2.0050      2.00000
     34       2.0396      2.00000
     35       2.0621      2.00000
     36       2.0621      2.00000
     37       2.1333      2.00000
     38       2.1333      2.00000
     39       2.2063      2.00000
     40       2.2063      2.00000
     41       2.2787      2.00000
     42       2.2787      2.00000
     43       2.3496      2.00000
     44       2.3496      2.00000
     45       2.4051      2.00000
     46       2.4051      2.00000
     47       2.4530      2.00000
     48       2.4530      2.00000
     49       2.5938      2.00000
     50       3.5276      2.00000
     51       4.7726      2.00000
     52       5.9156      0.00001
     53       6.5990      0.00000
     54       7.0994      0.00000
     55       7.1299      0.00000
     56       7.9472      0.00000
     57       8.0817      0.00000
     58       8.8622      0.00000
     59       8.9602      0.00000
     60       9.6431      0.00000
     61       9.6544      0.00000
     62      10.0200      0.00000
     63      10.1102      0.00000
     64      10.4135      0.00000
     65      11.4397      0.00000
     66      13.0855      0.00000

 k-point     2 :       0.0769    0.0000    0.0000
  band No.  band energies     occupation 
      1     -14.5609      2.00000
      2     -14.5155      2.00000
      3     -14.4399      2.00000
      4     -14.3323      2.00000
      5     -14.1985      2.00000
      6     -14.0553      2.00000
      7     -13.9111      2.00000
      8     -13.7732      2.00000
      9     -13.6617      2.00000
     10     -13.5779      2.00000
     11      -3.7417      2.00000
     12      -3.2573      2.00000
     13      -2.8959      2.00000
     14      -2.4283      2.00000
     15      -2.0807      2.00000
     16      -1.9122      2.00000
     17      -1.8737      2.00000
     18      -1.5315      2.00000
     19      -1.3935      2.00000
     20      -0.9236      2.00000
     21      -0.8504      2.00000
     22      -0.2908      2.00000
     23       0.0425      2.00000
     24       0.4250      2.00000
     25       0.7596      2.00000
     26       1.3269      2.00000
     27       1.6921      2.00000
     28       1.7105      2.00000
     29       1.7430      2.00000
     30       1.7854      2.00000
     31       1.8528      2.00000
     32       1.8977      2.00000
     33       1.9249      2.00000
     34       1.9286      2.00000
     35       1.9617      2.00000
     36       2.0102      2.00000
     37       2.0193      2.00000
     38       2.0449      2.00000
     39       2.0803      2.00000
     40       2.0912      2.00000
     41       2.1204      2.00000
     42       2.1648      2.00000
     43       2.1716      2.00000
     44       2.2164      2.00000
     45       2.2379      2.00000
     46       2.3094      2.00000
     47       2.3654      2.00000
     48       2.4136      2.00000
     49       2.7204      2.00000
     50       3.6592      2.00000
     51       4.9174      2.00000
     52       6.0876      0.00000
     53       6.9253      0.00000
     54       7.3169      0.00000
     55       7.4023      0.00000
     56       8.1509      0.00000
     57       8.2966      0.00000
     58       9.0556      0.00000
     59       9.1648      0.00000
     60       9.8687      0.00000
     61       9.8788      0.00000
     62      10.2865      0.00000
     63      10.3843      0.00000
     64      10.6135      0.00000
     65      11.5481      0.00000
     66      13.1020      0.00000

 k-point     3 :       0.1538    0.0000   -0.0000
  band No.  band energies     occupation 
      1     -14.4115      2.00000
      2     -14.3694      2.00000
      3     -14.3000      2.00000
      4     -14.2006      2.00000
      5     -14.0769      2.00000
      6     -13.9451      2.00000
      7     -13.8129      2.00000
      8     -13.6863      2.00000
      9     -13.5845      2.00000
     10     -13.5070      2.00000
     11      -3.3517      2.00000
     12      -2.8680      2.00000
     13      -2.5091      2.00000
     14      -2.0538      2.00000
     15      -1.8332      2.00000
     16      -1.6801      2.00000
     17      -1.5918      2.00000
     18      -1.2728      2.00000
     19      -1.2056      2.00000
     20      -0.7480      2.00000
     21      -0.6572      2.00000
     22      -0.2466      2.00000
     23       0.0321      2.00000
     24       0.4985      2.00000
     25       0.6168      2.00000
     26       0.9113      2.00000
     27       1.0851      2.00000
     28       1.1260      2.00000
     29       1.1857      2.00000
     30       1.2250      2.00000
     31       1.2912      2.00000
     32       1.3845      2.00000
     33       1.5304      2.00000
     34       1.6681      2.00000
     35       1.7795      2.00000
     36       1.7993      2.00000
     37       1.8071      2.00000
     38       1.8448      2.00000
     39       1.9019      2.00000
     40       1.9036      2.00000
     41       1.9769      2.00000
     42       1.9919      2.00000
     43       2.0522      2.00000
     44       2.1269      2.00000
     45       2.1999      2.00000
     46       2.2572      2.00000
     47       2.3061      2.00000
     48       2.3351      2.00000
     49       3.0312      2.00000
     50       4.0081      2.00000
     51       5.2952      2.00000
     52       6.5084      0.00000
     53       7.6283      0.00000
     54       7.8796      0.00000
     55       8.0751      0.00000
     56       8.6654      0.00000
     57       8.8357      0.00000
     58       9.5110      0.00000
     59       9.6749      0.00000
     60      10.4040      0.00000
     61      10.4149      0.00000
     62      10.9334      0.00000
     63      11.0363      0.00000
     64      11.1846      0.00000
     65      11.2767      0.00000
[...]
     17      -1.1003      2.00000
     18      -1.0184      2.00000
     19      -0.8850      2.00000
     20      -0.7500      2.00000
     21      -0.3546      2.00000
     22      -0.2131      2.00000
     23      -0.0744      2.00000
     24       0.0733      2.00000
     25       0.2373      2.00000
     26       0.2449      2.00000
     27       0.3285      2.00000
     28       0.3884      2.00000
     29       0.4497      2.00000
     30       0.5718      2.00000
     31       0.6299      2.00000
     32       0.6957      2.00000
     33       0.7910      2.00000
     34       0.9349      2.00000
     35       0.9672      2.00000
     36       1.0493      2.00000
     37       1.1025      2.00000
     38       1.1985      2.00000
     39       1.2684      2.00000
     40       1.3616      2.00000
     41       1.4579      2.00000
     42       1.4931      2.00000
     43       1.8418      2.00000
     44       2.3202      2.00000
     45       2.9615      2.00000
     46       3.6008      2.00000
     47       4.2118      2.00000
     48       4.6331      2.00000
     49       4.7800      2.00000
     50       5.1064      2.00000
     51       5.5468      2.00000
     52       5.7912      1.65737
     53       6.0649      0.00000
     54       6.2367      0.00000
     55       6.3425      0.00000
     56       6.6257      0.00000
     57       6.6834      0.00000
     58       6.9249      0.00000
     59       7.2131      0.00000
     60       7.7284      0.00000
     61       7.7415      0.00000
     62       8.0893      0.00000
     63       8.4244      0.00000
     64       8.8744      0.00000
     65       9.2048      0.00000
     66       9.4397      0.00000

 k-point    20 :       0.3846    0.2308    0.0000
  band No.  band energies     occupation 
      1     -13.4418      2.00000
      2     -13.4267      2.00000
      3     -13.4191      2.00000
      4     -13.4054      2.00000
      5     -13.3846      2.00000
      6     -13.3681      2.00000
      7     -13.3508      2.00000
      8     -13.3355      2.00000
      9     -13.3203      2.00000
     10     -13.2908      2.00000
     11      -1.5248      2.00000
     12      -1.4337      2.00000
     13      -1.3106      2.00000
     14      -1.1552      2.00000
     15      -1.1060      2.00000
     16      -1.0682      2.00000
     17      -1.0356      2.00000
     18      -1.0199      2.00000
     19      -0.9822      2.00000
     20      -0.9584      2.00000
     21      -0.1610      2.00000
     22      -0.1275      2.00000
     23      -0.0842      2.00000
     24      -0.0647      2.00000
     25      -0.0160      2.00000
     26       0.0158      2.00000
     27       0.0555      2.00000
     28       0.1997      2.00000
     29       0.3512      2.00000
     30       0.5025      2.00000
     31       0.7196      2.00000
     32       0.7395      2.00000
     33       0.8957      2.00000
     34       0.9103      2.00000
     35       1.0007      2.00000
     36       1.0444      2.00000
     37       1.1798      2.00000
     38       1.2683      2.00000
     39       1.3140      2.00000
     40       1.3353      2.00000
     41       2.4593      2.00000
     42       2.4909      2.00000
     43       2.9865      2.00000
     44       3.0018      2.00000
     45       3.3260      2.00000
     46       3.3519      2.00000
     47       3.7615      2.00000
     48       3.8307      2.00000
     49       4.3360      2.00000
     50       4.5259      2.00000
     51       5.0084      2.00000
     52       5.2224      2.00000
     53       5.6801      1.99996
     54       6.0845      0.00000
     55       6.1735      0.00000
     56       6.3362      0.00000
     57       6.5986      0.00000
     58       7.0396      0.00000
     59       7.4840      0.00000
     60       7.4932      0.00000
     61       7.6873      0.00000
     62       8.0239      0.00000
     63       8.2128      0.00000
     64       8.4481      0.00000
     65       8.8921      0.00000
     66       9.2943      0.00000

 k-point    21 :       0.3077    0.3077    0.0000
  band No.  band energies     occupation 
      1     -13.4111      2.00000
      2     -13.3987      2.00000
      3     -13.3948      2.00000
      4     -13.3808      2.00000
      5     -13.3626      2.00000
      6     -13.3499      2.00000
      7     -13.3400      2.00000
      8     -13.3316      2.00000
      9     -13.3146      2.00000
     10     -13.2907      2.00000
     11      -1.1747      2.00000
     12      -1.1730      2.00000
     13      -1.0953      2.00000
     14      -1.0880      2.00000
     15      -0.9989      2.00000
     16      -0.9882      2.00000
     17      -0.8781      2.00000
     18      -0.7810      2.00000
     19      -0.7405      2.00000
     20      -0.6715      2.00000
     21      -0.5730      2.00000
     22      -0.5251      2.00000
     23      -0.3849      2.00000
     24      -0.3835      2.00000
     25      -0.2457      2.00000
     26      -0.2012      2.00000
     27      -0.1086      2.00000
     28      -0.0368      2.00000
     29       0.0421      2.00000
     30       0.0789      2.00000
     31       0.7166      2.00000
     32       0.7411      2.00000
     33       0.8997      2.00000
     34       1.0250      2.00000
     35       1.0811      2.00000
     36       1.1037      2.00000
     37       1.1447      2.00000
     38       1.1538      2.00000
     39       1.1984      2.00000
     40       1.2905      2.00000
     41       2.3512      2.00000
     42       2.8720      2.00000
     43       3.2120      2.00000
     44       3.6735      2.00000
     45       3.9568      2.00000
     46       3.9875      2.00000
     47       4.2974      2.00000
     48       4.4799      2.00000
     49       4.4864      2.00000
     50       4.7561      2.00000
     51       4.8064      2.00000
     52       4.9506      2.00000
     53       5.2838      2.00000
     54       5.3088      2.00000
     55       5.8472      0.52686
     56       5.9117      0.01400
     57       6.3006      0.00000
     58       6.5204      0.00000
     59       6.7428      0.00000
     60       7.3908      0.00000
     61       7.6985      0.00000
     62       7.8045      0.00000
     63       7.8600      0.00000
     64       8.6971      0.00000
     65       8.9499      0.00000
     66       8.9675      0.00000


--------------------------------------------------------------------------------------------------------


 soft charge-density along one line, spin component           1
         0         1         2         3         4         5         6         7         8         9
 total charge-density along one line
 
 pseudopotential strength for first ion, spin component:           1
 12.248   0.000 -14.909   0.000   0.000   0.000  -0.004   0.000  -0.000   0.000  -0.000   0.000   0.004   0.000   0.000   0.000
-14.909   0.000  18.167   0.000  -0.000   0.000   0.005   0.000   0.000   0.000   0.000   0.000  -0.006   0.000  -0.000   0.000
  0.000   0.000  -0.000   0.000  -8.411   0.000  -0.000   0.000   0.000   0.000  10.090   0.000   0.000   0.000  -0.000   0.000
 -0.004   0.000   0.005   0.000  -0.000   0.000  -8.422   0.000   0.000   0.000   0.000   0.000  10.105   0.000  -0.000   0.000
 -0.000   0.000   0.000   0.000   0.000   0.000   0.000   0.000  -8.411   0.000  -0.000   0.000  -0.000   0.000  10.090   0.000
 -0.000   0.000   0.000   0.000  10.090   0.000   0.000   0.000  -0.000   0.000 -11.948   0.000  -0.000   0.000   0.000   0.000
  0.004   0.000  -0.006   0.000   0.000   0.000  10.105   0.000  -0.000   0.000  -0.000   0.000 -11.967   0.000   0.000   0.000
  0.000   0.000  -0.000   0.000  -0.000   0.000  -0.000   0.000  10.090   0.000   0.000   0.000   0.000   0.000 -11.948   0.000
 total augmentation occupancy for first ion, spin component:           1
  2.570   0.347   0.000   0.012  -0.000   0.000   0.001  -0.000
  0.347   0.074  -0.000   0.009  -0.000  -0.000  -0.003   0.000
  0.000   0.000   2.128  -0.000  -0.000   0.248  -0.000   0.000
  0.012   0.009  -0.000   2.107  -0.000  -0.000   0.253  -0.000
 -0.000  -0.000  -0.000  -0.000   2.128  -0.000  -0.000   0.248
  0.000  -0.000   0.248  -0.000   0.000   0.032   0.000  -0.000
  0.001  -0.003  -0.000   0.253  -0.000   0.000   0.034  -0.000
 -0.000   0.000  -0.000  -0.000   0.248  -0.000  -0.000   0.032


------------------------ aborting loop because EDIFF is reached ----------------------------------------


    CHARGE:  cpu time    0.43: real time    0.43
    FORLOC:  cpu time    0.04: real time    0.04
    FORNL :  cpu time    3.80: real time    3.80
    STRESS:  cpu time    4.92: real time    4.92
    FORCOR:  cpu time    0.15: real time    0.15
    FORHAR:  cpu time    0.06: real time    0.06
    MIXING:  cpu time    0.00: real time    0.00
    OFIELD:  cpu time    0.00: real time    0.00

  FORCE on cell =-STRESS in cart. coord.  units (eV):
  Direction    XX          YY          ZZ          XY          YZ          ZX
  --------------------------------------------------------------------------------------
  Alpha Z   131.55364   131.55364   131.55364
  Ewald   26529.01786 26529.01825-29213.70367    -0.00009     0.00006    -0.00021
  Hartree 28271.35113 28271.35105-27320.35039    -0.00000     0.00000     0.00004
  E(xc)    -422.31236  -422.31237  -421.87683    -0.00000     0.00000     0.00000
  Local  -56038.40006-56038.39959 55296.50576    -0.00013    -0.00005     0.00010
  n-local   -43.90967   -57.77975   -53.66510     2.92657    -1.42777     5.19298
  augment    59.71108    59.71083    58.97167     0.00018    -0.00000     0.00000
  Kinetic  1533.44488  1490.64497  1496.91679     1.83411    -0.34417     1.95551
  Fock        0.00000     0.00000     0.00000     0.00000     0.00000     0.00000
  -------------------------------------------------------------------------------------
  Total      -7.87825    -7.87824   -25.64814     0.00000     0.00000     0.00000
  in kB     -34.20757   -34.20755  -111.36494     0.00000     0.00000     0.00000
  external pressure =      -59.93 kB  Pullay stress =        0.00 kB


 VOLUME and BASIS-vectors are now :
 -----------------------------------------------------------------------------
  energy-cutoff  :      520.00
  volume of cell :      368.99
      direct lattice vectors                 reciprocal lattice vectors
     2.592201318 -1.496607673  0.000000000     0.385772507  0.000000000  0.000000000
     0.000000000  2.993215347  0.000000000     0.192886253  0.334088892  0.000000000
    -0.000000000  0.000000000 47.556646842     0.000000000  0.000000000  0.021027555

  length of vectors
     2.993216030  2.993215347 47.556646842     0.385772507  0.385772595  0.021027555


 FORCES acting on ions
    electron-ion (+dipol)            ewald-force                    non-local-force                 convergence-correction
 -----------------------------------------------------------------------------------------------
   -.473E-03 0.823E-03 0.157E+04   -.308E-05 0.232E-05 -.157E+04   -.496E-17 -.217E-18 0.123E+01   0.164E-09 -.543E-09 -.627E-01
   0.588E-03 -.102E-02 0.122E+04   0.536E-04 -.927E-04 -.122E+04   0.280E-18 -.108E-17 0.380E-01   -.166E-08 0.261E-08 -.665E-01
   -.474E-03 0.820E-03 0.525E+03   -.162E-07 0.179E-07 -.525E+03   -.500E-19 -.339E-20 0.117E-01   0.547E-09 -.892E-09 -.192E-01
   0.588E-03 -.102E-02 0.175E+03   0.536E-04 -.928E-04 -.175E+03   0.900E-19 -.203E-19 -.962E-02   0.185E-08 -.320E-08 -.514E-02
   -.474E-03 0.820E-03 -.525E+03   0.123E-07 -.135E-07 0.525E+03   0.514E-19 0.000E+00 -.117E-01   0.224E-09 -.443E-09 0.191E-01
   0.588E-03 -.102E-02 -.874E+03   0.535E-04 -.927E-04 0.874E+03   0.853E-19 -.407E-19 -.252E-01   0.699E-09 -.113E-08 0.428E-01
   -.478E-03 0.824E-03 -.157E+04   0.309E-05 -.232E-05 0.157E+04   0.491E-17 0.000E+00 -.123E+01   0.118E-08 -.178E-08 0.627E-01
   -.154E-02 0.266E-02 0.874E+03   -.535E-04 0.927E-04 -.874E+03   -.814E-19 0.813E-19 0.252E-01   -.448E-09 0.697E-09 -.429E-01
   -.154E-02 0.266E-02 -.175E+03   -.536E-04 0.928E-04 0.175E+03   -.104E-18 0.136E-19 0.962E-02   -.440E-08 0.763E-08 0.491E-02
   -.154E-02 0.266E-02 -.122E+04   -.536E-04 0.927E-04 0.122E+04   -.208E-18 0.108E-17 -.380E-01   0.441E-08 -.737E-08 0.664E-01
   0.213E-04 -.369E-04 0.350E+03   -.241E-07 0.268E-07 -.350E+03   -.684E-20 0.000E+00 0.326E-02   0.166E-09 -.289E-09 -.189E-01
   0.214E-04 -.370E-04 -.993E-03   0.205E-08 -.229E-08 0.115E-01   -.907E-20 -.271E-19 0.000E+00   0.725E-11 -.126E-10 -.388E-04
   0.213E-04 -.370E-04 -.350E+03   0.221E-07 -.246E-07 0.350E+03   0.561E-20 0.000E+00 -.326E-02   -.219E-09 0.380E-09 0.188E-01
   0.630E-04 -.109E-03 0.466E+03   -.464E-04 0.802E-04 -.466E+03   0.173E-19 0.173E-17 -.428E-01   -.208E-09 0.434E-09 -.243E-01
   0.627E-04 -.109E-03 0.117E+03   -.463E-04 0.802E-04 -.117E+03   0.175E-19 0.517E-19 -.435E-02   0.182E-09 -.361E-09 -.298E-02
   0.627E-04 -.109E-03 -.233E+03   -.463E-04 0.802E-04 0.233E+03   -.318E-20 -.339E-20 -.224E-02   0.164E-09 -.288E-09 0.984E-02
   0.416E-04 -.581E-04 -.564E+03   -.235E-04 0.253E-04 0.564E+03   -.357E-17 0.208E-16 0.292E+00   -.342E-09 0.542E-09 0.222E-01
   -.186E-04 0.184E-04 0.564E+03   0.235E-04 -.253E-04 -.564E+03   0.184E-17 -.208E-16 -.292E+00   0.346E-09 -.549E-09 -.222E-01
   -.201E-04 0.348E-04 0.233E+03   0.463E-04 -.802E-04 -.233E+03   0.287E-20 0.000E+00 0.224E-02   -.190E-09 0.333E-09 -.989E-02
   -.201E-04 0.349E-04 -.117E+03   0.463E-04 -.802E-04 0.117E+03   -.169E-19 -.542E-19 0.435E-02   -.179E-09 0.358E-09 0.291E-02
   -.202E-04 0.350E-04 -.466E+03   0.464E-04 -.802E-04 0.466E+03   0.958E-19 -.130E-17 0.428E-01   0.191E-09 -.404E-09 0.243E-01
   0.488E-05 -.846E-05 0.128E-02   -.122E-09 0.116E-09 0.536E-02   -.100E-19 0.542E-19 -.434E-18   -.956E-11 0.166E-10 0.529E-04
   0.448E-05 -.786E-05 0.610E+03   0.218E-06 -.188E-06 -.609E+03   0.145E-18 0.694E-17 -.421E+00   -.122E-12 -.349E-11 -.245E-01
   0.192E-04 -.333E-04 0.386E+03   -.104E-05 0.190E-05 -.386E+03   0.127E-19 0.000E+00 -.329E-01   -.266E-10 0.531E-10 -.176E-01
   -.971E-05 0.167E-04 0.176E+03   0.167E-05 -.250E-05 -.176E+03   0.674E-17 -.139E-16 0.580E+00   0.965E-11 -.174E-10 -.957E-02
   0.459E-05 -.784E-05 -.610E+03   -.219E-06 0.188E-06 0.609E+03   -.188E-17 -.208E-16 0.421E+00   -.245E-11 0.795E-11 0.246E-01
   0.193E-04 -.333E-04 -.176E+03   -.167E-05 0.250E-05 0.176E+03   -.673E-17 0.139E-16 -.580E+00   -.241E-10 0.423E-10 0.966E-02
   -.975E-05 0.169E-04 -.386E+03   0.104E-05 -.190E-05 0.386E+03   -.104E-19 0.000E+00 0.329E-01   0.100E-10 -.243E-10 0.177E-01
 -----------------------------------------------------------------------------------------------
   -.449E-02 0.778E-02 -.589E+00   0.718E-13 -.518E-14 -.625E-12   -.336E-17 -.136E-16 -.271E-15   0.243E-08 -.421E-08 -.537E-03
 
 
 POSITION                                       TOTAL-FORCE (eV/Angst)
 -----------------------------------------------------------------------------------
     -0.00000     -0.00000     13.50803        -0.000000      0.000000      0.010166
      0.86407      1.49661     16.04611        -0.000000     -0.000000     -0.005060
     -0.00000      0.00000     21.12542        -0.000000      0.000000      0.003080
      0.86407      1.49661     23.66582         0.000000      0.000000     -0.008024
     -0.00000     -0.00000     28.74425         0.000000     -0.000000     -0.003080
      0.86407      1.49661     31.28487         0.000000      0.000000     -0.007863
     -0.00000      0.00000     36.36202         0.000000     -0.000000     -0.010166
      1.72814     -0.00000     18.58495        -0.000000     -0.000000      0.007863
      1.72814     -0.00000     26.20377        -0.000000     -0.000000      0.008024
      1.72814     -0.00000     33.82384        -0.000000      0.000000      0.005060
     -0.00000      0.00000     17.31527        -0.000000      0.000000      0.002872
     -0.00000      0.00000     24.93482        -0.000000      0.000000     -0.000000
     -0.00000      0.00000     32.55460         0.000000      0.000000     -0.002872
      1.72814     -0.00000     14.77554        -0.000000     -0.000000      0.006776
      1.72814     -0.00000     22.39601         0.000000     -0.000000     -0.011123
      1.72814     -0.00000     30.01461         0.000000     -0.000000     -0.000295
      1.72814     -0.00000     37.67752         0.000000      0.000000     -0.002391
      0.86407      1.49661     12.19253        -0.000000     -0.000000      0.002391
      0.86407      1.49661     19.85516        -0.000000      0.000000      0.000295
      0.86407      1.49661     27.47366        -0.000000      0.000000      0.011123
      0.86407      1.49661     35.09442         0.000000      0.000000     -0.006776
     -0.00000      0.00000      1.15656         0.000000      0.000000     -0.000000
     -0.00000      0.00000      9.33176        -0.000000     -0.000000      0.009686
      1.72814     -0.00000      6.47568        -0.000000      0.000000      0.009271
      0.86407      1.49661      3.70418        -0.000000     -0.000000      0.010053
     -0.00000      0.00000     40.53834         0.000000      0.000000     -0.009686
      1.72814     -0.00000     46.16554         0.000000      0.000000     -0.010053
      0.86407      1.49661     43.39417         0.000000      0.000000     -0.009271
 -----------------------------------------------------------------------------------
    total drift:                               -0.004493      0.007782     -0.589476


--------------------------------------------------------------------------------------------------------



  FREE ENERGIE OF THE ION-ELECTRON SYSTEM (eV)
  ---------------------------------------------------
  free  energy   TOTEN  =      -144.17448538 eV

  energy  without entropy=     -144.16982572  energy(sigma->0) =     -144.17215555
 
 d Force = 0.7444926E-04[ 0.477E-04, 0.101E-03]  d Energy = 0.4751422E-04 0.269E-04
 d Force =-0.4239502E+01[-0.424E+01,-0.424E+01]  d Ewald  =-0.4239502E+01-0.340E-08


--------------------------------------------------------------------------------------------------------


    POTLOK:  cpu time    0.22: real time    0.22


--------------------------------------------------------------------------------------------------------


 Conjugate gradient step on ions:
 trial-energy change:   -0.000048  1 .order   -0.000074   -0.000101   -0.000048
  (g-gl).g = 0.658E-04      g.g   = 0.149E-03  gl.gl    = 0.579E-03
 g(Force)  = 0.149E-03   g(Stress)= 0.000E+00 ortho     =-0.160E-05
 gamma     =   0.11359
 trial     =   0.68197
 opt step  =   1.28941  (harmonic =   1.28941) maximal distance =0.00186222
 next E    =  -144.174534   (d E  =  -0.00010)


--------------------------------------------------------------------------------------------------------


  
 reached required accuracy - stopping structural energy minimisation
     LOOP+:  cpu time   40.05: real time   40.11
    4ORBIT:  cpu time    0.00: real time    0.00

 total amount of memory used by VASP on root node   164079. kBytes
========================================================================

   base      :      30000. kBytes
   nonl-proj :      17906. kBytes
   fftplans  :      62073. kBytes
   grid      :      24883. kBytes
   one-center:         56. kBytes
   wavefun   :      29161. kBytes
 
  
  
 General timing and accounting informations for this job:
 ========================================================
  
                  Total CPU time used (sec):     1384.712
                            User time (sec):     1370.419
                          System time (sec):       14.293
                         Elapsed time (sec):     1386.880
  
                   Maximum memory used (kb):      274060.
                   Average memory used (kb):           0.
  
                          Minor page faults:       384847
                          Major page faults:            0
                 Voluntary context switches:          104
