       N       E                     dE             d eps       ncg     rms          rms(c)
DAV:   1     0.764486961926E+03    0.76449E+03   -0.41456E+04  3060   0.118E+03
DAV:   2    -0.312639525919E+02   -0.79575E+03   -0.75480E+03  3940   0.268E+02
DAV:   3    -0.157351348619E+03   -0.12609E+03   -0.12508E+03  3560   0.111E+02
DAV:   4    -0.161069045269E+03   -0.37177E+01   -0.37071E+01  3580   0.223E+01
DAV:   5    -0.161170054270E+03   -0.10101E+00   -0.10096E+00  3880   0.338E+00    0.232E+01
DAV:   6    -0.144472387394E+03    0.16698E+02   -0.96689E+01  3470   0.292E+01    0.762E+00
DAV:   7    -0.144328723561E+03    0.14366E+00   -0.10023E+01  3540   0.733E+00    0.517E+00
DAV:   8    -0.144216769365E+03    0.11195E+00   -0.32847E+00  3620   0.506E+00    0.328E+00
DAV:   9    -0.143973265790E+03    0.24350E+00   -0.29441E+00  3590   0.437E+00    0.795E-01
DAV:  10    -0.143947231628E+03    0.26034E-01   -0.29501E-01  3500   0.154E+00    0.570E-01
DAV:  11    -0.143942195138E+03    0.50365E-02   -0.25940E-02  3510   0.514E-01    0.417E-01
DAV:  12    -0.143940292629E+03    0.19025E-02   -0.15482E-02  3570   0.493E-01    0.290E-01
DAV:  13    -0.143936847618E+03    0.34450E-02   -0.23405E-03  4030   0.333E-01    0.138E-01
DAV:  14    -0.143934593906E+03    0.22537E-02   -0.26209E-03  3520   0.262E-01    0.674E-02
DAV:  15    -0.143932605039E+03    0.19889E-02   -0.56536E-04  3530   0.184E-01    0.515E-02
DAV:  16    -0.143930413796E+03    0.21912E-02   -0.50504E-04  4270   0.225E-01    0.526E-02
DAV:  17    -0.143927205067E+03    0.32087E-02   -0.93486E-04  4190   0.437E-01    0.395E-02
DAV:  18    -0.143925536834E+03    0.16682E-02   -0.68149E-04  3810   0.328E-01    0.437E-02
DAV:  19    -0.143924167105E+03    0.13697E-02   -0.58656E-04  3660   0.268E-01    0.359E-02
DAV:  20    -0.143922566945E+03    0.16002E-02   -0.61927E-04  3710   0.254E-01    0.248E-02
DAV:  21    -0.143922269799E+03    0.29715E-03   -0.36468E-04  3550   0.182E-01    0.199E-02
DAV:  22    -0.143922223133E+03    0.46666E-04   -0.18618E-04  3550   0.122E-01    0.214E-02
DAV:  23    -0.143922177105E+03    0.46028E-04   -0.10569E-04  3660   0.120E-01    0.163E-02
DAV:  24    -0.143922161586E+03    0.15518E-04   -0.76558E-05  3380   0.980E-02    0.141E-02
DAV:  25    -0.143922103992E+03    0.57595E-04   -0.86801E-05  3210   0.118E-01    0.103E-02
DAV:  26    -0.143922095862E+03    0.81300E-05   -0.94245E-05  3230   0.715E-02
   1 F= -.14392210E+03 E0= -.14391950E+03  d E =-.143922E+03
       N       E                     dE             d eps       ncg     rms          rms(c)
DAV:   1    -0.144779590752E+03   -0.85749E+00   -0.29087E+01  3240   0.232E+01    0.336E+00
DAV:   2    -0.144619501475E+03    0.16009E+00   -0.76582E-01  3470   0.305E+00    0.196E+00
DAV:   3    -0.144549060291E+03    0.70441E-01   -0.40740E-01  3490   0.177E+00    0.672E-01
DAV:   4    -0.144520379131E+03    0.28681E-01   -0.34727E-01  3590   0.126E+00    0.246E-01
DAV:   5    -0.144515656725E+03    0.47224E-02   -0.44756E-02  3550   0.456E-01    0.149E-01
DAV:   6    -0.144515173130E+03    0.48359E-03   -0.24545E-03  3540   0.164E-01    0.105E-01
DAV:   7    -0.144514336061E+03    0.83707E-03   -0.45825E-04  3850   0.183E-01    0.654E-02
DAV:   8    -0.144513393512E+03    0.94255E-03   -0.86873E-04  3580   0.295E-01    0.289E-02
DAV:   9    -0.144513346457E+03    0.47055E-04   -0.57472E-04  3540   0.102E-01    0.253E-02
DAV:  10    -0.144513116524E+03    0.22993E-03   -0.10359E-04  3750   0.131E-01    0.203E-02
DAV:  11    -0.144512652110E+03    0.46441E-03   -0.57613E-04  3660   0.328E-01    0.213E-02
DAV:  12    -0.144512544688E+03    0.10742E-03   -0.44064E-04  3710   0.151E-01    0.209E-02
DAV:  13    -0.144512458764E+03    0.85924E-04   -0.14852E-04  3940   0.118E-01    0.142E-02
DAV:  14    -0.144512288368E+03    0.17040E-03   -0.11827E-04  4150   0.200E-01    0.147E-02
DAV:  15    -0.144512195972E+03    0.92395E-04   -0.12563E-04  3490   0.126E-01    0.131E-02
DAV:  16    -0.144512104742E+03    0.91230E-04   -0.70817E-05  3550   0.128E-01    0.971E-03
DAV:  17    -0.144512008902E+03    0.95840E-04   -0.65153E-05  3850   0.145E-01    0.744E-03
DAV:  18    -0.144511931393E+03    0.77509E-04   -0.92351E-05  4100   0.154E-01    0.832E-03
DAV:  19    -0.144511933720E+03   -0.23269E-05   -0.18774E-04  3430   0.580E-02    0.114E-02
DAV:  20    -0.144511935102E+03   -0.13827E-05   -0.20152E-05  2740   0.143E-02
   2 F= -.14451194E+03 E0= -.14450940E+03  d E =-.589839E+00
       N       E                     dE             d eps       ncg     rms          rms(c)
DAV:   1    -0.144546796734E+03   -0.34863E-01   -0.18230E+00  3180   0.576E+00    0.833E-01
DAV:   2    -0.144537065590E+03    0.97311E-02   -0.38546E-02  3510   0.696E-01    0.479E-01
DAV:   3    -0.144532414385E+03    0.46512E-02   -0.22732E-02  3450   0.427E-01    0.134E-01
DAV:   4    -0.144530856796E+03    0.15576E-02   -0.17254E-02  3630   0.256E-01    0.534E-02
DAV:   5    -0.144530674362E+03    0.18243E-03   -0.15188E-03  3480   0.839E-02    0.341E-02
DAV:   6    -0.144530640994E+03    0.33368E-04   -0.94661E-05  3570   0.375E-02    0.221E-02
DAV:   7    -0.144530596248E+03    0.44746E-04   -0.25739E-05  3010   0.392E-02    0.105E-02
DAV:   8    -0.144530580946E+03    0.15302E-04   -0.31367E-05  3160   0.400E-02    0.669E-03
DAV:   9    -0.144530583097E+03   -0.21507E-05   -0.20632E-05  2810   0.353E-02
   3 F= -.14453058E+03 E0= -.14452856E+03  d E =-.608487E+00
       N       E                     dE             d eps       ncg     rms          rms(c)
DAV:   1    -0.144531462055E+03   -0.88111E-03   -0.37440E-02  3320   0.826E-01    0.120E-01
DAV:   2    -0.144531285608E+03    0.17645E-03   -0.79887E-04  3500   0.103E-01    0.687E-02
DAV:   3    -0.144531211209E+03    0.74399E-04   -0.42921E-04  3540   0.654E-02    0.203E-02
DAV:   4    -0.144531193955E+03    0.17254E-04   -0.36663E-04  3460   0.424E-02    0.811E-03
DAV:   5    -0.144531191654E+03    0.23009E-05   -0.33370E-05  2440   0.163E-02    0.563E-03
DAV:   6    -0.144531190328E+03    0.13259E-05   -0.23533E-06  2240   0.118E-02
   4 F= -.14453119E+03 E0= -.14452918E+03  d E =-.609094E+00
       N       E                     dE             d eps       ncg     rms          rms(c)
DAV:   1    -0.144576533266E+03   -0.45342E-01   -0.20257E+01  2940   0.159E+01    0.724E-01
DAV:   2    -0.144619127389E+03   -0.42594E-01   -0.54929E-01  3460   0.232E+00    0.466E-01
DAV:   3    -0.144613750727E+03    0.53767E-02   -0.77057E-03  3710   0.454E-01    0.309E-01
DAV:   4    -0.144609407513E+03    0.43432E-02   -0.81117E-03  3690   0.565E-01    0.991E-02
DAV:   5    -0.144608993187E+03    0.41433E-03   -0.56528E-03  3550   0.326E-01    0.589E-02
DAV:   6    -0.144608743739E+03    0.24945E-03   -0.11559E-03  3630   0.144E-01    0.407E-02
DAV:   7    -0.144608441669E+03    0.30207E-03   -0.28665E-04  3670   0.126E-01    0.240E-02
DAV:   8    -0.144608259189E+03    0.18248E-03   -0.12401E-04  4060   0.121E-01    0.171E-02
DAV:   9    -0.144608003593E+03    0.25560E-03   -0.13736E-04  4110   0.200E-01    0.152E-02
DAV:  10    -0.144607886294E+03    0.11730E-03   -0.15176E-04  3720   0.140E-01    0.145E-02
DAV:  11    -0.144607804522E+03    0.81772E-04   -0.11047E-04  4060   0.145E-01    0.102E-02
DAV:  12    -0.144607749291E+03    0.55230E-04   -0.64529E-05  3690   0.144E-01    0.774E-03
DAV:  13    -0.144607725086E+03    0.24206E-04   -0.10319E-04  3570   0.120E-01    0.811E-03
DAV:  14    -0.144607723244E+03    0.18414E-05   -0.10628E-04  3360   0.666E-02    0.888E-03
DAV:  15    -0.144607722796E+03    0.44844E-06   -0.34064E-05  2970   0.260E-02
   5 F= -.14460772E+03 E0= -.14460560E+03  d E =-.765325E-01
       N       E                     dE             d eps       ncg     rms          rms(c)
DAV:   1    -0.144609890984E+03   -0.21677E-02   -0.35797E+00  2960   0.709E+00    0.304E-01
DAV:   2    -0.144616778748E+03   -0.68878E-02   -0.91419E-02  3460   0.102E+00    0.191E-01
DAV:   3    -0.144615895892E+03    0.88286E-03   -0.15504E-03  3680   0.203E-01    0.133E-01
DAV:   4    -0.144615156452E+03    0.73944E-03   -0.20042E-03  3620   0.256E-01    0.491E-02
DAV:   5    -0.144615044921E+03    0.11153E-03   -0.10948E-03  3550   0.147E-01    0.370E-02
DAV:   6    -0.144615009985E+03    0.34936E-04   -0.24061E-04  3540   0.611E-02    0.240E-02
DAV:   7    -0.144614943343E+03    0.66642E-04   -0.83450E-05  3520   0.516E-02    0.120E-02
DAV:   8    -0.144614892992E+03    0.50351E-04   -0.19869E-05  2910   0.598E-02    0.945E-03
DAV:   9    -0.144614820489E+03    0.72503E-04   -0.45092E-05  3680   0.114E-01    0.723E-03
DAV:  10    -0.144614792764E+03    0.27725E-04   -0.48150E-05  3500   0.652E-02    0.694E-03
DAV:  11    -0.144614760928E+03    0.31836E-04   -0.10702E-05  2510   0.874E-02    0.590E-03
DAV:  12    -0.144614737346E+03    0.23583E-04   -0.42436E-05  3530   0.103E-01    0.520E-03
DAV:  13    -0.144614733743E+03    0.36024E-05   -0.55529E-05  3290   0.584E-02
   6 F= -.14461473E+03 E0= -.14461256E+03  d E =-.835434E-01
       N       E                     dE             d eps       ncg     rms          rms(c)
DAV:   1    -0.144649738699E+03   -0.35001E-01   -0.66557E+00  2990   0.104E+01    0.497E-01
DAV:   2    -0.144661410858E+03   -0.11672E-01   -0.16961E-01  3460   0.148E+00    0.281E-01
DAV:   3    -0.144659927434E+03    0.14834E-02   -0.47050E-03  3520   0.292E-01    0.181E-01
DAV:   4    -0.144659420820E+03    0.50661E-03   -0.55852E-03  3510   0.270E-01    0.832E-02
DAV:   5    -0.144658967617E+03    0.45320E-03   -0.26555E-03  3570   0.189E-01    0.539E-02
DAV:   6    -0.144658910962E+03    0.56656E-04   -0.46687E-04  3600   0.930E-02    0.399E-02
DAV:   7    -0.144658873660E+03    0.37302E-04   -0.10595E-04  3620   0.506E-02    0.275E-02
DAV:   8    -0.144658822473E+03    0.51187E-04   -0.92463E-06  2540   0.600E-02    0.150E-02
DAV:   9    -0.144658758070E+03    0.64403E-04   -0.33711E-05  3270   0.814E-02    0.656E-03
DAV:  10    -0.144658745117E+03    0.12953E-04   -0.39284E-05  3200   0.353E-02    0.715E-03
DAV:  11    -0.144658718155E+03    0.26962E-04   -0.41954E-06  2380   0.461E-02    0.502E-03
DAV:  12    -0.144658661060E+03    0.57095E-04   -0.39050E-05  3480   0.116E-01    0.914E-03
DAV:  13    -0.144658659192E+03    0.18673E-05   -0.39493E-05  3270   0.260E-02
   7 F= -.14465866E+03 E0= -.14465671E+03  d E =-.439254E-01
       N       E                     dE             d eps       ncg     rms          rms(c)
DAV:   1    -0.144663871575E+03   -0.52105E-02   -0.11167E+01  3010   0.131E+01    0.653E-01
DAV:   2    -0.144684322114E+03   -0.20451E-01   -0.29287E-01  3440   0.186E+00    0.374E-01
DAV:   3    -0.144681685566E+03    0.26365E-02   -0.74355E-03  3530   0.365E-01    0.240E-01
DAV:   4    -0.144680853832E+03    0.83173E-03   -0.93042E-03  3540   0.353E-01    0.114E-01
DAV:   5    -0.144680028276E+03    0.82556E-03   -0.44055E-03  3560   0.250E-01    0.730E-02
DAV:   6    -0.144679894530E+03    0.13375E-03   -0.75787E-04  3560   0.115E-01    0.515E-02
DAV:   7    -0.144679816544E+03    0.77986E-04   -0.20000E-04  3600   0.661E-02    0.345E-02
DAV:   8    -0.144679726178E+03    0.90365E-04   -0.41414E-05  3130   0.709E-02    0.205E-02
DAV:   9    -0.144679595589E+03    0.13059E-03   -0.77074E-05  3580   0.100E-01    0.929E-03
DAV:  10    -0.144679563153E+03    0.32436E-04   -0.64429E-05  3400   0.432E-02    0.952E-03
DAV:  11    -0.144679491083E+03    0.72071E-04   -0.93209E-06  2660   0.647E-02    0.679E-03
DAV:  12    -0.144679363350E+03    0.12773E-03   -0.69151E-05  3720   0.135E-01    0.108E-02
DAV:  13    -0.144679349753E+03    0.13598E-04   -0.60500E-05  3300   0.397E-02    0.854E-03
DAV:  14    -0.144679315788E+03    0.33965E-04   -0.19898E-05  3020   0.747E-02    0.568E-03
DAV:  15    -0.144679264464E+03    0.51324E-04   -0.56411E-05  3680   0.127E-01    0.621E-03
DAV:  16    -0.144679268204E+03   -0.37399E-05   -0.75172E-05  3390   0.455E-02
   8 F= -.14467927E+03 E0= -.14467668E+03  d E =-.645345E-01
       N       E                     dE             d eps       ncg     rms          rms(c)
DAV:   1    -0.144698429379E+03   -0.19165E-01   -0.95185E+00  3090   0.110E+01    0.447E-01
DAV:   2    -0.144717025229E+03   -0.18596E-01   -0.23948E-01  3490   0.164E+00    0.278E-01
DAV:   3    -0.144715258480E+03    0.17667E-02   -0.78069E-03  3540   0.329E-01    0.189E-01
DAV:   4    -0.144714423694E+03    0.83479E-03   -0.48102E-03  3550   0.256E-01    0.109E-01
DAV:   5    -0.144713639481E+03    0.78421E-03   -0.27639E-03  3550   0.237E-01    0.530E-02
DAV:   6    -0.144713498078E+03    0.14140E-03   -0.88930E-04  3660   0.151E-01    0.440E-02
DAV:   7    -0.144713296370E+03    0.20171E-03   -0.23338E-04  4410   0.134E-01    0.278E-02
DAV:   8    -0.144713147042E+03    0.14933E-03   -0.12147E-04  3960   0.111E-01    0.191E-02
DAV:   9    -0.144712962017E+03    0.18502E-03   -0.75678E-05  4290   0.153E-01    0.114E-02
DAV:  10    -0.144712853550E+03    0.10847E-03   -0.89662E-05  3400   0.120E-01    0.999E-03
DAV:  11    -0.144712751973E+03    0.10158E-03   -0.59808E-05  3780   0.144E-01    0.750E-03
DAV:  12    -0.144712610573E+03    0.14140E-03   -0.15602E-04  4530   0.297E-01    0.983E-03
DAV:  13    -0.144712616836E+03   -0.62629E-05   -0.32764E-04  3500   0.980E-02    0.906E-03
DAV:  14    -0.144712618266E+03   -0.14303E-05   -0.71907E-05  3370   0.480E-02
   9 F= -.14471262E+03 E0= -.14470953E+03  d E =-.333501E-01
       N       E                     dE             d eps       ncg     rms          rms(c)
DAV:   1    -0.144713461198E+03   -0.84436E-03   -0.13060E+00  3090   0.442E+00    0.166E-01
DAV:   2    -0.144715913981E+03   -0.24528E-02   -0.32050E-02  3520   0.648E-01    0.101E-01
DAV:   3    -0.144715670327E+03    0.24365E-03   -0.11193E-03  3520   0.126E-01    0.705E-02
DAV:   4    -0.144715555636E+03    0.11469E-03   -0.67141E-04  3550   0.948E-02    0.407E-02
DAV:   5    -0.144715436036E+03    0.11960E-03   -0.37696E-04  3510   0.937E-02    0.207E-02
DAV:   6    -0.144715412343E+03    0.23693E-04   -0.11927E-04  3580   0.607E-02    0.178E-02
DAV:   7    -0.144715374558E+03    0.37785E-04   -0.38267E-05  3480   0.618E-02    0.104E-02
DAV:   8    -0.144715345680E+03    0.28878E-04   -0.24801E-05  2920   0.507E-02    0.824E-03
DAV:   9    -0.144715311805E+03    0.33874E-04   -0.10290E-05  2620   0.588E-02    0.540E-03
DAV:  10    -0.144715279149E+03    0.32657E-04   -0.13906E-05  2720   0.698E-02    0.485E-03
DAV:  11    -0.144715232059E+03    0.47089E-04   -0.47280E-05  3710   0.136E-01    0.808E-03
DAV:  12    -0.144715204840E+03    0.27219E-04   -0.73414E-05  3940   0.140E-01    0.902E-03
DAV:  13    -0.144715206435E+03   -0.15955E-05   -0.10717E-04  3380   0.692E-02    0.550E-03
DAV:  14    -0.144715210347E+03   -0.39113E-05   -0.41120E-05  2850   0.209E-02
  10 F= -.14471521E+03 E0= -.14471199E+03  d E =-.359421E-01
       N       E                     dE             d eps       ncg     rms          rms(c)
DAV:   1    -0.144727106629E+03   -0.11900E-01   -0.10455E+01  2940   0.128E+01    0.475E-01
DAV:   2    -0.144746950716E+03   -0.19844E-01   -0.23592E-01  3430   0.177E+00    0.266E-01
DAV:   3    -0.144745388672E+03    0.15620E-02   -0.59367E-03  3610   0.280E-01    0.177E-01
DAV:   4    -0.144744810770E+03    0.57790E-03   -0.64588E-03  3490   0.277E-01    0.940E-02
DAV:   5    -0.144744314361E+03    0.49641E-03   -0.38489E-03  3510   0.222E-01    0.546E-02
DAV:   6    -0.144744301204E+03    0.13157E-04   -0.53493E-04  3530   0.969E-02    0.515E-02
DAV:   7    -0.144744287483E+03    0.13720E-04   -0.72261E-05  3580   0.328E-02    0.400E-02
DAV:   8    -0.144744238681E+03    0.48803E-04   -0.34239E-05  3160   0.606E-02    0.187E-02
DAV:   9    -0.144744205508E+03    0.33173E-04   -0.32205E-05  3490   0.720E-02    0.740E-03
DAV:  10    -0.144744193180E+03    0.12328E-04   -0.25488E-05  3120   0.557E-02    0.535E-03
DAV:  11    -0.144744183401E+03    0.97791E-05   -0.73253E-06  2480   0.508E-02
  11 F= -.14474418E+03 E0= -.14474086E+03  d E =-.289731E-01
       N       E                     dE             d eps       ncg     rms          rms(c)
DAV:   1    -0.144641410292E+03    0.10278E+00   -0.63903E+01  2950   0.315E+01    0.124E+00
DAV:   2    -0.144778856275E+03   -0.13745E+00   -0.16302E+00  3400   0.448E+00    0.744E-01
DAV:   3    -0.144767533123E+03    0.11323E-01   -0.38690E-02  3610   0.725E-01    0.480E-01
DAV:   4    -0.144763499677E+03    0.40334E-02   -0.40882E-02  3520   0.707E-01    0.240E-01
DAV:   5    -0.144760446245E+03    0.30534E-02   -0.23397E-02  3560   0.505E-01    0.135E-01
DAV:   6    -0.144760167357E+03    0.27889E-03   -0.32180E-03  3530   0.254E-01    0.110E-01
DAV:   7    -0.144759984516E+03    0.18284E-03   -0.63141E-04  3680   0.125E-01    0.668E-02
DAV:   8    -0.144759698337E+03    0.28618E-03   -0.24594E-04  4880   0.181E-01    0.319E-02
DAV:   9    -0.144759486384E+03    0.21195E-03   -0.13563E-04  3860   0.153E-01    0.168E-02
DAV:  10    -0.144759370934E+03    0.11545E-03   -0.11805E-04  3710   0.116E-01    0.145E-02
DAV:  11    -0.144759149585E+03    0.22135E-03   -0.12005E-04  4340   0.228E-01    0.141E-02
DAV:  12    -0.144759013746E+03    0.13584E-03   -0.19440E-04  3800   0.189E-01    0.191E-02
DAV:  13    -0.144758966743E+03    0.47003E-04   -0.21646E-04  3500   0.110E-01    0.165E-02
DAV:  14    -0.144758933517E+03    0.33226E-04   -0.96753E-05  3500   0.753E-02    0.124E-02
DAV:  15    -0.144758914475E+03    0.19042E-04   -0.32097E-05  3120   0.441E-02    0.847E-03
DAV:  16    -0.144758845211E+03    0.69264E-04   -0.28580E-05  3160   0.120E-01    0.597E-03
DAV:  17    -0.144758811284E+03    0.33927E-04   -0.43308E-05  3450   0.808E-02    0.670E-03
DAV:  18    -0.144758789235E+03    0.22048E-04   -0.31874E-05  3130   0.600E-02    0.445E-03
DAV:  19    -0.144758774159E+03    0.15076E-04   -0.13209E-05  2730   0.546E-02    0.392E-03
DAV:  20    -0.144758766674E+03    0.74851E-05   -0.19839E-05  2940   0.521E-02
  12 F= -.14475877E+03 E0= -.14475563E+03  d E =-.435563E-01
       N       E                     dE             d eps       ncg     rms          rms(c)
DAV:   1    -0.144751998072E+03    0.67761E-02   -0.66072E+00  2980   0.975E+00    0.382E-01
DAV:   2    -0.144764786316E+03   -0.12788E-01   -0.15043E-01  3430   0.133E+00    0.211E-01
DAV:   3    -0.144763784922E+03    0.10014E-02   -0.36237E-03  3580   0.213E-01    0.139E-01
DAV:   4    -0.144763451707E+03    0.33321E-03   -0.39504E-03  3550   0.212E-01    0.744E-02
DAV:   5    -0.144763138018E+03    0.31369E-03   -0.22297E-03  3490   0.163E-01    0.382E-02
DAV:   6    -0.144763127280E+03    0.10739E-04   -0.30263E-04  3570   0.727E-02    0.340E-02
DAV:   7    -0.144763112651E+03    0.14629E-04   -0.49899E-05  3540   0.308E-02    0.229E-02
DAV:   8    -0.144763085117E+03    0.27534E-04   -0.13592E-05  2460   0.435E-02    0.113E-02
DAV:   9    -0.144763063327E+03    0.21790E-04   -0.13733E-05  2680   0.474E-02    0.547E-03
DAV:  10    -0.144763050696E+03    0.12631E-04   -0.13782E-05  2540   0.411E-02    0.430E-03
DAV:  11    -0.144763036095E+03    0.14601E-04   -0.86820E-06  2520   0.564E-02    0.434E-03
DAV:  12    -0.144763028418E+03    0.76771E-05   -0.19853E-05  2790   0.499E-02
  13 F= -.14476303E+03 E0= -.14475978E+03  d E =-.478181E-01
       N       E                     dE             d eps       ncg     rms          rms(c)
DAV:   1    -0.144774639927E+03   -0.11604E-01   -0.85504E+00  3010   0.115E+01    0.435E-01
DAV:   2    -0.144792475504E+03   -0.17836E-01   -0.20093E-01  3440   0.160E+00    0.237E-01
DAV:   3    -0.144791388213E+03    0.10873E-02   -0.42510E-03  3640   0.255E-01    0.162E-01
DAV:   4    -0.144790943335E+03    0.44488E-03   -0.39591E-03  3520   0.227E-01    0.834E-02
DAV:   5    -0.144790607875E+03    0.33546E-03   -0.25320E-03  3540   0.171E-01    0.533E-02
DAV:   6    -0.144790572312E+03    0.35563E-04   -0.45549E-04  3530   0.923E-02    0.443E-02
DAV:   7    -0.144790540467E+03    0.31844E-04   -0.13317E-04  3640   0.569E-02    0.251E-02
DAV:   8    -0.144790497814E+03    0.42653E-04   -0.25371E-05  2810   0.620E-02    0.135E-02
DAV:   9    -0.144790466544E+03    0.31270E-04   -0.30282E-05  3180   0.607E-02    0.744E-03
DAV:  10    -0.144790452762E+03    0.13782E-04   -0.23646E-05  2910   0.446E-02    0.536E-03
DAV:  11    -0.144790441342E+03    0.11420E-04   -0.51704E-06  2430   0.476E-02    0.355E-03
DAV:  12    -0.144790438230E+03    0.31119E-05   -0.16618E-05  2670   0.348E-02
  14 F= -.14479044E+03 E0= -.14478751E+03  d E =-.274098E-01
       N       E                     dE             d eps       ncg     rms          rms(c)
DAV:   1    -0.144706473863E+03    0.83967E-01   -0.56233E+01  3000   0.298E+01    0.114E+00
DAV:   2    -0.144832400320E+03   -0.12593E+00   -0.14045E+00  3460   0.427E+00    0.670E-01
DAV:   3    -0.144824000078E+03    0.84002E-02   -0.26960E-02  3710   0.681E-01    0.431E-01
DAV:   4    -0.144820643893E+03    0.33562E-02   -0.24798E-02  3550   0.605E-01    0.210E-01
DAV:   5    -0.144818677724E+03    0.19662E-02   -0.16640E-02  3550   0.413E-01    0.121E-01
DAV:   6    -0.144818370001E+03    0.30772E-03   -0.34008E-03  3550   0.244E-01    0.921E-02
DAV:   7    -0.144818102067E+03    0.26793E-03   -0.65038E-04  3710   0.157E-01    0.493E-02
DAV:   8    -0.144817883441E+03    0.21863E-03   -0.18803E-04  4670   0.141E-01    0.310E-02
DAV:   9    -0.144817697336E+03    0.18610E-03   -0.15198E-04  4240   0.152E-01    0.149E-02
DAV:  10    -0.144817638096E+03    0.59240E-04   -0.14845E-04  3610   0.953E-02    0.124E-02
DAV:  11    -0.144817595462E+03    0.42635E-04   -0.37319E-05  3210   0.845E-02    0.752E-03
DAV:  12    -0.144817562094E+03    0.33367E-04   -0.24328E-05  2990   0.898E-02    0.639E-03
DAV:  13    -0.144817555591E+03    0.65030E-05   -0.58579E-05  3470   0.686E-02
  15 F= -.14481756E+03 E0= -.14481526E+03  d E =-.545272E-01
       N       E                     dE             d eps       ncg     rms          rms(c)
DAV:   1    -0.144826124938E+03   -0.85628E-02   -0.79424E+00  2940   0.114E+01    0.407E-01
DAV:   2    -0.144842243149E+03   -0.16118E-01   -0.17947E-01  3430   0.156E+00    0.223E-01
DAV:   3    -0.144841214236E+03    0.10289E-02   -0.49389E-03  3590   0.234E-01    0.148E-01
DAV:   4    -0.144840975506E+03    0.23873E-03   -0.48193E-03  3490   0.208E-01    0.875E-02
DAV:   5    -0.144840577822E+03    0.39768E-03   -0.24747E-03  3520   0.175E-01    0.352E-02
DAV:   6    -0.144840581848E+03   -0.40266E-05   -0.32390E-04  3560   0.761E-02    0.372E-02
DAV:   7    -0.144840574878E+03    0.69697E-05   -0.42705E-05  3420   0.252E-02
  16 F= -.14484057E+03 E0= -.14483840E+03  d E =-.230193E-01
       N       E                     dE             d eps       ncg     rms          rms(c)
DAV:   1    -0.144732423236E+03    0.10816E+00   -0.71312E+01  2960   0.341E+01    0.126E+00
DAV:   2    -0.144889234054E+03   -0.15681E+00   -0.17698E+00  3440   0.487E+00    0.751E-01
DAV:   3    -0.144877560457E+03    0.11674E-01   -0.54194E-02  3550   0.771E-01    0.478E-01
DAV:   4    -0.144874908433E+03    0.26520E-02   -0.44035E-02  3480   0.623E-01    0.282E-01
DAV:   5    -0.144870617216E+03    0.42912E-02   -0.22895E-02  3590   0.533E-01    0.106E-01
DAV:   6    -0.144870471898E+03    0.14532E-03   -0.32485E-03  3570   0.282E-01    0.996E-02
DAV:   7    -0.144870356078E+03    0.11582E-03   -0.53908E-04  3610   0.112E-01    0.767E-02
DAV:   8    -0.144870063778E+03    0.29230E-03   -0.19169E-04  3720   0.128E-01    0.392E-02
DAV:   9    -0.144869793206E+03    0.27057E-03   -0.11915E-04  4210   0.160E-01    0.241E-02
DAV:  10    -0.144869645165E+03    0.14804E-03   -0.12420E-04  4090   0.124E-01    0.150E-02
DAV:  11    -0.144869554297E+03    0.90868E-04   -0.96798E-05  3520   0.916E-02    0.148E-02
DAV:  12    -0.144869386515E+03    0.16778E-03   -0.44650E-05  3840   0.136E-01    0.105E-02
DAV:  13    -0.144869097032E+03    0.28948E-03   -0.16643E-04  4570   0.292E-01    0.134E-02
DAV:  14    -0.144868986861E+03    0.11017E-03   -0.25901E-04  3950   0.194E-01    0.103E-02
DAV:  15    -0.144868958949E+03    0.27912E-04   -0.23933E-04  3600   0.124E-01    0.175E-02
DAV:  16    -0.144868910822E+03    0.48127E-04   -0.35765E-05  3230   0.130E-01    0.133E-02
DAV:  17    -0.144868874874E+03    0.35948E-04   -0.76444E-05  4010   0.150E-01    0.786E-03
DAV:  18    -0.144868890867E+03   -0.15992E-04   -0.14676E-04  3500   0.512E-02    0.826E-03
DAV:  19    -0.144868894177E+03   -0.33104E-05   -0.14133E-05  2650   0.153E-02
  17 F= -.14486889E+03 E0= -.14486647E+03  d E =-.513386E-01
       N       E                     dE             d eps       ncg     rms          rms(c)
DAV:   1    -0.144882534441E+03   -0.13644E-01   -0.32770E+00  2980   0.738E+00    0.329E-01
DAV:   2    -0.144887949765E+03   -0.54153E-02   -0.80006E-02  3470   0.107E+00    0.189E-01
DAV:   3    -0.144887175877E+03    0.77389E-03   -0.48609E-03  3550   0.213E-01    0.127E-01
DAV:   4    -0.144886883870E+03    0.29201E-03   -0.37892E-03  3520   0.166E-01    0.762E-02
DAV:   5    -0.144886526775E+03    0.35709E-03   -0.16640E-03  3460   0.125E-01    0.352E-02
DAV:   6    -0.144886501094E+03    0.25681E-04   -0.22098E-04  3650   0.693E-02    0.289E-02
DAV:   7    -0.144886484699E+03    0.16395E-04   -0.88182E-05  3690   0.509E-02    0.205E-02
DAV:   8    -0.144886465719E+03    0.18980E-04   -0.15437E-05  2620   0.373E-02    0.121E-02
DAV:   9    -0.144886448091E+03    0.17628E-04   -0.14333E-05  2690   0.572E-02    0.582E-03
DAV:  10    -0.144886443401E+03    0.46893E-05   -0.21798E-05  2890   0.451E-02
  18 F= -.14488644E+03 E0= -.14488405E+03  d E =-.175492E-01
       N       E                     dE             d eps       ncg     rms          rms(c)
DAV:   1    -0.144888131400E+03   -0.16833E-02   -0.37254E+00  2940   0.787E+00    0.353E-01
DAV:   2    -0.144894343802E+03   -0.62124E-02   -0.92432E-02  3480   0.115E+00    0.203E-01
DAV:   3    -0.144893407398E+03    0.93640E-03   -0.56522E-03  3570   0.230E-01    0.137E-01
DAV:   4    -0.144893024784E+03    0.38261E-03   -0.42673E-03  3540   0.178E-01    0.824E-02
DAV:   5    -0.144892566717E+03    0.45807E-03   -0.18847E-03  3490   0.138E-01    0.383E-02
DAV:   6    -0.144892520493E+03    0.46224E-04   -0.26213E-04  3660   0.783E-02    0.311E-02
DAV:   7    -0.144892475275E+03    0.45218E-04   -0.98786E-05  3750   0.619E-02    0.214E-02
DAV:   8    -0.144892428649E+03    0.46626E-04   -0.19170E-05  2690   0.551E-02    0.130E-02
DAV:   9    -0.144892368955E+03    0.59694E-04   -0.25681E-05  2910   0.852E-02    0.744E-03
DAV:  10    -0.144892332624E+03    0.36331E-04   -0.42542E-05  3380   0.700E-02    0.801E-03
DAV:  11    -0.144892276371E+03    0.56254E-04   -0.20667E-05  2830   0.117E-01    0.796E-03
DAV:  12    -0.144892219510E+03    0.56860E-04   -0.91845E-05  3970   0.172E-01    0.965E-03
DAV:  13    -0.144892202534E+03    0.16976E-04   -0.10648E-04  3440   0.119E-01    0.996E-03
DAV:  14    -0.144892205584E+03   -0.30498E-05   -0.10557E-04  3390   0.812E-02    0.795E-03
DAV:  15    -0.144892204987E+03    0.59675E-06   -0.24530E-05  2940   0.557E-02
  19 F= -.14489220E+03 E0= -.14488983E+03  d E =-.233108E-01
       N       E                     dE             d eps       ncg     rms          rms(c)
DAV:   1    -0.144896199575E+03   -0.39940E-02   -0.23981E+00  2980   0.623E+00    0.225E-01
DAV:   2    -0.144900520748E+03   -0.43212E-02   -0.53481E-02  3430   0.863E-01    0.135E-01
DAV:   3    -0.144900079234E+03    0.44151E-03   -0.87649E-04  3640   0.158E-01    0.903E-02
DAV:   4    -0.144899766430E+03    0.31280E-03   -0.88892E-04  3720   0.179E-01    0.337E-02
DAV:   5    -0.144899750142E+03    0.16288E-04   -0.43682E-04  3550   0.979E-02    0.274E-02
DAV:   6    -0.144899735438E+03    0.14704E-04   -0.97614E-05  3460   0.448E-02    0.159E-02
DAV:   7    -0.144899720950E+03    0.14488E-04   -0.22385E-05  2620   0.303E-02    0.863E-03
DAV:   8    -0.144899710083E+03    0.10866E-04   -0.10741E-05  2480   0.329E-02    0.717E-03
DAV:   9    -0.144899705413E+03    0.46698E-05   -0.13618E-05  2420   0.255E-02
  20 F= -.14489971E+03 E0= -.14489742E+03  d E =-.750043E-02
       N       E                     dE             d eps       ncg     rms          rms(c)
DAV:   1    -0.144896391879E+03    0.33182E-02   -0.40436E+00  2940   0.813E+00    0.290E-01
DAV:   2    -0.144903614453E+03   -0.72226E-02   -0.89633E-02  3440   0.112E+00    0.173E-01
DAV:   3    -0.144902865353E+03    0.74910E-03   -0.14426E-03  3630   0.203E-01    0.116E-01
DAV:   4    -0.144902305112E+03    0.56024E-03   -0.14711E-03  3750   0.238E-01    0.430E-02
DAV:   5    -0.144902271507E+03    0.33605E-04   -0.76865E-04  3540   0.132E-01    0.359E-02
DAV:   6    -0.144902245832E+03    0.25675E-04   -0.14904E-04  3550   0.549E-02    0.230E-02
DAV:   7    -0.144902213435E+03    0.32397E-04   -0.36623E-05  3270   0.384E-02    0.109E-02
DAV:   8    -0.144902181479E+03    0.31957E-04   -0.20451E-05  2710   0.566E-02    0.956E-03
DAV:   9    -0.144902165883E+03    0.15596E-04   -0.28093E-05  3010   0.449E-02    0.895E-03
DAV:  10    -0.144902153289E+03    0.12594E-04   -0.14757E-05  2380   0.429E-02    0.704E-03
DAV:  11    -0.144902136716E+03    0.16573E-04   -0.87119E-06  2540   0.578E-02    0.540E-03
DAV:  12    -0.144902123912E+03    0.12804E-04   -0.24889E-05  2980   0.612E-02    0.826E-03
DAV:  13    -0.144902112996E+03    0.10916E-04   -0.94411E-06  2420   0.589E-02    0.788E-03
DAV:  14    -0.144902103386E+03    0.96097E-05   -0.15647E-05  2750   0.709E-02
  21 F= -.14490210E+03 E0= -.14489992E+03  d E =-.989840E-02
       N       E                     dE             d eps       ncg     rms          rms(c)
DAV:   1    -0.144904173717E+03   -0.20607E-02   -0.24540E+00  2990   0.627E+00    0.211E-01
DAV:   2    -0.144908852285E+03   -0.46786E-02   -0.53763E-02  3460   0.876E-01    0.125E-01
DAV:   3    -0.144908532867E+03    0.31942E-03   -0.82462E-04  3680   0.136E-01    0.890E-02
DAV:   4    -0.144908295729E+03    0.23714E-03   -0.96191E-04  3550   0.162E-01    0.366E-02
DAV:   5    -0.144908265657E+03    0.30071E-04   -0.29903E-04  3510   0.853E-02    0.332E-02
DAV:   6    -0.144908244540E+03    0.21118E-04   -0.14412E-04  3480   0.544E-02    0.157E-02
DAV:   7    -0.144908227391E+03    0.17149E-04   -0.60902E-05  3370   0.396E-02    0.105E-02
DAV:   8    -0.144908216094E+03    0.11296E-04   -0.13361E-05  2350   0.279E-02    0.943E-03
DAV:   9    -0.144908200140E+03    0.15954E-04   -0.97467E-06  2480   0.395E-02    0.529E-03
DAV:  10    -0.144908189841E+03    0.10299E-04   -0.16601E-05  2780   0.363E-02    0.448E-03
DAV:  11    -0.144908185220E+03    0.46216E-05   -0.72494E-06  2200   0.206E-02
  22 F= -.14490819E+03 E0= -.14490596E+03  d E =-.608183E-02
       N       E                     dE             d eps       ncg     rms          rms(c)
DAV:   1    -0.144901674129E+03    0.65157E-02   -0.51396E+00  2940   0.907E+00    0.307E-01
DAV:   2    -0.144911534637E+03   -0.98605E-02   -0.11338E-01  3450   0.127E+00    0.181E-01
DAV:   3    -0.144910857555E+03    0.67708E-03   -0.17437E-03  3690   0.195E-01    0.130E-01
DAV:   4    -0.144910352735E+03    0.50482E-03   -0.20319E-03  3540   0.235E-01    0.531E-02
DAV:   5    -0.144910282804E+03    0.69931E-04   -0.63777E-04  3530   0.126E-01    0.485E-02
DAV:   6    -0.144910234409E+03    0.48395E-04   -0.29783E-04  3490   0.787E-02    0.235E-02
DAV:   7    -0.144910193268E+03    0.41142E-04   -0.12453E-04  3510   0.577E-02    0.141E-02
DAV:   8    -0.144910163575E+03    0.29693E-04   -0.26139E-05  2560   0.454E-02    0.129E-02
DAV:   9    -0.144910121960E+03    0.41614E-04   -0.18418E-05  2690   0.643E-02    0.815E-03
DAV:  10    -0.144910089928E+03    0.32033E-04   -0.30342E-05  3160   0.617E-02    0.602E-03
DAV:  11    -0.144910068601E+03    0.21327E-04   -0.11371E-05  2380   0.461E-02    0.543E-03
DAV:  12    -0.144910007986E+03    0.60615E-04   -0.17810E-05  2820   0.134E-01    0.708E-03
DAV:  13    -0.144909997060E+03    0.10926E-04   -0.44962E-05  3310   0.437E-02    0.943E-03
DAV:  14    -0.144909988367E+03    0.86926E-05   -0.16306E-05  2530   0.345E-02
  23 F= -.14490999E+03 E0= -.14490769E+03  d E =-.788498E-02
       N       E                     dE             d eps       ncg     rms          rms(c)
DAV:   1    -0.144909625847E+03    0.37121E-03   -0.32867E-01  3270   0.229E+00    0.836E-02
DAV:   2    -0.144910356072E+03   -0.73023E-03   -0.84721E-03  3490   0.345E-01    0.544E-02
DAV:   3    -0.144910301521E+03    0.54551E-04   -0.14916E-04  3740   0.590E-02    0.380E-02
DAV:   4    -0.144910266981E+03    0.34541E-04   -0.19167E-04  3440   0.643E-02    0.153E-02
DAV:   5    -0.144910263198E+03    0.37830E-05   -0.43573E-05  3370   0.322E-02    0.128E-02
DAV:   6    -0.144910261408E+03    0.17892E-05   -0.22903E-05  2310   0.230E-02
  24 F= -.14491026E+03 E0= -.14490799E+03  d E =-.815802E-02
       N       E                     dE             d eps       ncg     rms          rms(c)
DAV:   1    -0.144913004968E+03   -0.27418E-02   -0.15380E+00  2970   0.504E+00    0.176E-01
DAV:   2    -0.144915842138E+03   -0.28372E-02   -0.35299E-02  3460   0.699E-01    0.107E-01
DAV:   3    -0.144915564464E+03    0.27767E-03   -0.59181E-04  3670   0.108E-01    0.774E-02
DAV:   4    -0.144915363134E+03    0.20133E-03   -0.91108E-04  3500   0.137E-01    0.339E-02
DAV:   5    -0.144915280117E+03    0.83017E-04   -0.59314E-04  3520   0.838E-02    0.270E-02
DAV:   6    -0.144915259945E+03    0.20172E-04   -0.67056E-05  3440   0.313E-02    0.199E-02
DAV:   7    -0.144915223294E+03    0.36651E-04   -0.34017E-05  3300   0.320E-02    0.907E-03
DAV:   8    -0.144915181517E+03    0.41777E-04   -0.22573E-05  2950   0.466E-02    0.100E-02
DAV:   9    -0.144915144820E+03    0.36697E-04   -0.15645E-05  2620   0.518E-02    0.639E-03
DAV:  10    -0.144915099695E+03    0.45125E-04   -0.24410E-05  3020   0.712E-02    0.524E-03
DAV:  11    -0.144915056540E+03    0.43155E-04   -0.25685E-05  3060   0.850E-02    0.427E-03
DAV:  12    -0.144915011948E+03    0.44593E-04   -0.44854E-05  3550   0.135E-01    0.553E-03
DAV:  13    -0.144915005869E+03    0.60782E-05   -0.83733E-05  3190   0.713E-02
  25 F= -.14491501E+03 E0= -.14491262E+03  d E =-.474446E-02
       N       E                     dE             d eps       ncg     rms          rms(c)
DAV:   1    -0.144915148044E+03   -0.13610E-03   -0.32584E-01  3200   0.232E+00    0.810E-02
DAV:   2    -0.144915741614E+03   -0.59357E-03   -0.74065E-03  3490   0.324E-01    0.489E-02
DAV:   3    -0.144915685314E+03    0.56299E-04   -0.12546E-04  3630   0.502E-02    0.352E-02
DAV:   4    -0.144915638187E+03    0.47127E-04   -0.15891E-04  3480   0.642E-02    0.148E-02
DAV:   5    -0.144915621684E+03    0.16504E-04   -0.10550E-04  3400   0.407E-02    0.121E-02
DAV:   6    -0.144915615187E+03    0.64965E-05   -0.18140E-05  2390   0.177E-02
  26 F= -.14491562E+03 E0= -.14491319E+03  d E =-.535378E-02
       N       E                     dE             d eps       ncg     rms          rms(c)
DAV:   1    -0.144917497480E+03   -0.18758E-02   -0.36982E-01  2980   0.246E+00    0.853E-02
DAV:   2    -0.144918183548E+03   -0.68607E-03   -0.86587E-03  3490   0.362E-01    0.535E-02
DAV:   3    -0.144918118612E+03    0.64936E-04   -0.24513E-04  3620   0.687E-02    0.381E-02
DAV:   4    -0.144918089754E+03    0.28858E-04   -0.21677E-04  3510   0.565E-02    0.202E-02
DAV:   5    -0.144918056634E+03    0.33120E-04   -0.12361E-04  3490   0.547E-02    0.125E-02
DAV:   6    -0.144918053117E+03    0.35168E-05   -0.31414E-05  3020   0.295E-02
  27 F= -.14491805E+03 E0= -.14491559E+03  d E =-.243793E-02
       N       E                     dE             d eps       ncg     rms          rms(c)
DAV:   1    -0.144918154462E+03   -0.97828E-04   -0.70454E-01  2940   0.339E+00    0.117E-01
DAV:   2    -0.144919472023E+03   -0.13176E-02   -0.16662E-02  3510   0.505E-01    0.764E-02
DAV:   3    -0.144919346576E+03    0.12545E-03   -0.48389E-04  3640   0.971E-02    0.547E-02
DAV:   4    -0.144919288300E+03    0.58277E-04   -0.41178E-04  3510   0.773E-02    0.288E-02
DAV:   5    -0.144919231021E+03    0.57279E-04   -0.25352E-04  3510   0.742E-02    0.185E-02
DAV:   6    -0.144919225361E+03    0.56605E-05   -0.64756E-05  3450   0.398E-02
  28 F= -.14491923E+03 E0= -.14491668E+03  d E =-.361017E-02
       N       E                     dE             d eps       ncg     rms          rms(c)
DAV:   1    -0.144920079722E+03   -0.84870E-03   -0.47824E-01  2940   0.279E+00    0.977E-02
DAV:   2    -0.144921024041E+03   -0.94432E-03   -0.11197E-02  3510   0.405E-01    0.582E-02
DAV:   3    -0.144920948835E+03    0.75206E-04   -0.33533E-04  3550   0.674E-02    0.412E-02
DAV:   4    -0.144920922917E+03    0.25917E-04   -0.25831E-04  3440   0.538E-02    0.241E-02
DAV:   5    -0.144920891116E+03    0.31802E-04   -0.16444E-04  3470   0.511E-02    0.132E-02
DAV:   6    -0.144920888303E+03    0.28130E-05   -0.27150E-05  2720   0.252E-02
  29 F= -.14492089E+03 E0= -.14491833E+03  d E =-.166294E-02
       N       E                     dE             d eps       ncg     rms          rms(c)
DAV:   1    -0.144920274547E+03    0.61657E-03   -0.81816E-01  2940   0.366E+00    0.127E-01
DAV:   2    -0.144921886912E+03   -0.16124E-02   -0.19186E-02  3510   0.529E-01    0.761E-02
DAV:   3    -0.144921751833E+03    0.13508E-03   -0.58792E-04  3580   0.898E-02    0.544E-02
DAV:   4    -0.144921703180E+03    0.48653E-04   -0.43465E-04  3490   0.730E-02    0.323E-02
DAV:   5    -0.144921640479E+03    0.62701E-04   -0.27297E-04  3470   0.755E-02    0.163E-02
DAV:   6    -0.144921636202E+03    0.42772E-05   -0.57875E-05  3480   0.340E-02
  30 F= -.14492164E+03 E0= -.14491909E+03  d E =-.241084E-02
       N       E                     dE             d eps       ncg     rms          rms(c)
DAV:   1    -0.144921903191E+03   -0.26271E-03   -0.65207E-01  2990   0.324E+00    0.107E-01
DAV:   2    -0.144923170954E+03   -0.12678E-02   -0.14266E-02  3490   0.451E-01    0.630E-02
DAV:   3    -0.144923070772E+03    0.10018E-03   -0.17044E-04  3760   0.726E-02    0.427E-02
DAV:   4    -0.144923002502E+03    0.68270E-04   -0.28117E-04  3610   0.103E-01    0.175E-02
DAV:   5    -0.144922989637E+03    0.12865E-04   -0.23055E-04  3510   0.633E-02    0.161E-02
DAV:   6    -0.144922985723E+03    0.39142E-05   -0.27029E-05  2720   0.207E-02
  31 F= -.14492299E+03 E0= -.14492046E+03  d E =-.134952E-02
       N       E                     dE             d eps       ncg     rms          rms(c)
DAV:   1    -0.144921897397E+03    0.10922E-02   -0.97415E-01  2980   0.395E+00    0.129E-01
DAV:   2    -0.144923758694E+03   -0.18613E-02   -0.21203E-02  3490   0.552E-01    0.772E-02
DAV:   3    -0.144923590817E+03    0.16788E-03   -0.27385E-04  3760   0.995E-02    0.526E-02
DAV:   4    -0.144923460870E+03    0.12995E-03   -0.43416E-04  3920   0.141E-01    0.247E-02
DAV:   5    -0.144923409456E+03    0.51414E-04   -0.39395E-04  3530   0.100E-01    0.187E-02
DAV:   6    -0.144923401267E+03    0.81883E-05   -0.80765E-05  3370   0.379E-02
  32 F= -.14492340E+03 E0= -.14492090E+03  d E =-.176507E-02
       N       E                     dE             d eps       ncg     rms          rms(c)
DAV:   1    -0.144923793557E+03   -0.38410E-03   -0.42310E-01  2940   0.264E+00    0.957E-02
DAV:   2    -0.144924653813E+03   -0.86026E-03   -0.10157E-02  3470   0.385E-01    0.543E-02
DAV:   3    -0.144924587766E+03    0.66047E-04   -0.15026E-04  3670   0.631E-02    0.396E-02
DAV:   4    -0.144924533415E+03    0.54350E-04   -0.17927E-04  3430   0.862E-02    0.161E-02
DAV:   5    -0.144924515899E+03    0.17517E-04   -0.14094E-04  3480   0.598E-02    0.150E-02
DAV:   6    -0.144924510420E+03    0.54786E-05   -0.29924E-05  2860   0.218E-02
  33 F= -.14492451E+03 E0= -.14492203E+03  d E =-.110915E-02
       N       E                     dE             d eps       ncg     rms          rms(c)
DAV:   1    -0.144924178517E+03    0.33738E-03   -0.38513E-01  2940   0.252E+00    0.910E-02
DAV:   2    -0.144924940967E+03   -0.76245E-03   -0.92134E-03  3430   0.369E-01    0.514E-02
DAV:   3    -0.144924872592E+03    0.68375E-04   -0.13678E-04  3660   0.591E-02    0.380E-02
DAV:   4    -0.144924800543E+03    0.72049E-04   -0.17137E-04  3610   0.838E-02    0.157E-02
DAV:   5    -0.144924773656E+03    0.26887E-04   -0.10242E-04  3550   0.516E-02    0.157E-02
DAV:   6    -0.144924764795E+03    0.88612E-05   -0.21194E-05  2670   0.192E-02
  34 F= -.14492476E+03 E0= -.14492230E+03  d E =-.136353E-02
       N       E                     dE             d eps       ncg     rms          rms(c)
DAV:   1    -0.144925557546E+03   -0.78389E-03   -0.25170E-01  3000   0.205E+00    0.740E-02
DAV:   2    -0.144925966560E+03   -0.40901E-03   -0.56258E-03  3460   0.298E-01    0.432E-02
DAV:   3    -0.144925921334E+03    0.45226E-04   -0.15997E-04  3690   0.628E-02    0.325E-02
DAV:   4    -0.144925886108E+03    0.35226E-04   -0.11424E-04  3490   0.556E-02    0.168E-02
DAV:   5    -0.144925857017E+03    0.29090E-04   -0.79041E-05  3380   0.600E-02    0.122E-02
DAV:   6    -0.144925851422E+03    0.55949E-05   -0.45942E-05  3160   0.336E-02
  35 F= -.14492585E+03 E0= -.14492339E+03  d E =-.108663E-02
       N       E                     dE             d eps       ncg     rms          rms(c)
DAV:   1    -0.144925692040E+03    0.16498E-03   -0.16295E-01  3020   0.165E+00    0.616E-02
DAV:   2    -0.144925935007E+03   -0.24297E-03   -0.37737E-03  3480   0.257E-01    0.370E-02
DAV:   3    -0.144925893442E+03    0.41565E-04   -0.15598E-04  3660   0.697E-02    0.289E-02
DAV:   4    -0.144925844523E+03    0.48919E-04   -0.43703E-05  3430   0.538E-02    0.162E-02
DAV:   5    -0.144925789303E+03    0.55221E-04   -0.24577E-05  3070   0.844E-02    0.114E-02
DAV:   6    -0.144925745431E+03    0.43872E-04   -0.25642E-05  3060   0.941E-02    0.871E-03
DAV:   7    -0.144925713025E+03    0.32406E-04   -0.39433E-05  3340   0.939E-02    0.669E-03
DAV:   8    -0.144925685769E+03    0.27256E-04   -0.16891E-05  2540   0.856E-02    0.550E-03
DAV:   9    -0.144925641664E+03    0.44105E-04   -0.47266E-05  3660   0.173E-01    0.809E-03
DAV:  10    -0.144925638625E+03    0.30386E-05   -0.64210E-05  3200   0.575E-02
  36 F= -.14492564E+03 E0= -.14492313E+03  d E =-.873830E-03
       N       E                     dE             d eps       ncg     rms          rms(c)
DAV:   1    -0.144925778304E+03   -0.13664E-03   -0.50940E-02  3160   0.922E-01    0.347E-02
DAV:   2    -0.144925863245E+03   -0.84941E-04   -0.11533E-03  3490   0.137E-01    0.197E-02
DAV:   3    -0.144925855989E+03    0.72567E-05   -0.40940E-05  3300   0.307E-02    0.146E-02
DAV:   4    -0.144925851095E+03    0.48940E-05   -0.18436E-05  2290   0.199E-02    0.755E-03
DAV:   5    -0.144925847383E+03    0.37114E-05   -0.13498E-05  2260   0.225E-02    0.536E-03
DAV:   6    -0.144925846535E+03    0.84833E-06   -0.90173E-06  2170   0.146E-02
  37 F= -.14492585E+03 E0= -.14492334E+03  d E =-.108174E-02
       N       E                     dE             d eps       ncg     rms          rms(c)
DAV:   1    -0.144926444495E+03   -0.59711E-03   -0.23009E-01  2940   0.195E+00    0.648E-02
DAV:   2    -0.144926843007E+03   -0.39851E-03   -0.48174E-03  3450   0.266E-01    0.353E-02
DAV:   3    -0.144926804971E+03    0.38036E-04   -0.13833E-04  3640   0.535E-02    0.243E-02
DAV:   4    -0.144926782685E+03    0.22286E-04   -0.10121E-04  3200   0.469E-02    0.150E-02
DAV:   5    -0.144926750747E+03    0.31938E-04   -0.69268E-05  3020   0.629E-02    0.690E-03
DAV:   6    -0.144926744480E+03    0.62677E-05   -0.38947E-05  3350   0.349E-02
  38 F= -.14492674E+03 E0= -.14492422E+03  d E =-.897945E-03
       N       E                     dE             d eps       ncg     rms          rms(c)
DAV:   1    -0.144926712750E+03    0.37997E-04   -0.33022E-01  2940   0.233E+00    0.803E-02
DAV:   2    -0.144927257906E+03   -0.54516E-03   -0.69954E-03  3470   0.324E-01    0.435E-02
DAV:   3    -0.144927182227E+03    0.75679E-04   -0.19726E-04  3780   0.779E-02    0.306E-02
DAV:   4    -0.144927120366E+03    0.61861E-04   -0.14216E-04  3520   0.711E-02    0.187E-02
DAV:   5    -0.144927035927E+03    0.84439E-04   -0.11572E-04  3390   0.969E-02    0.107E-02
DAV:   6    -0.144927010023E+03    0.25904E-04   -0.82819E-05  3540   0.551E-02    0.124E-02
DAV:   7    -0.144926998177E+03    0.11846E-04   -0.25263E-05  2770   0.264E-02    0.102E-02
DAV:   8    -0.144926944368E+03    0.53808E-04   -0.11142E-05  2630   0.658E-02    0.676E-03
DAV:   9    -0.144926885392E+03    0.58976E-04   -0.39672E-05  3490   0.944E-02    0.931E-03
DAV:  10    -0.144926872620E+03    0.12772E-04   -0.40493E-05  3210   0.444E-02    0.945E-03
DAV:  11    -0.144926850374E+03    0.22246E-04   -0.11747E-05  2520   0.614E-02    0.934E-03
DAV:  12    -0.144926807450E+03    0.42924E-04   -0.41673E-05  3570   0.136E-01    0.137E-02
DAV:  13    -0.144926808675E+03   -0.12256E-05   -0.67736E-05  3230   0.269E-02
  39 F= -.14492681E+03 E0= -.14492430E+03  d E =-.962141E-03
       N       E                     dE             d eps       ncg     rms          rms(c)
DAV:   1    -0.144927266932E+03   -0.45948E-03   -0.25526E-01  3000   0.206E+00    0.685E-02
DAV:   2    -0.144927768137E+03   -0.50120E-03   -0.56770E-03  3450   0.286E-01    0.382E-02
DAV:   3    -0.144927734918E+03    0.33219E-04   -0.14720E-04  3620   0.423E-02    0.258E-02
DAV:   4    -0.144927724722E+03    0.10196E-04   -0.11752E-04  2750   0.338E-02    0.156E-02
DAV:   5    -0.144927713384E+03    0.11338E-04   -0.82825E-05  3200   0.369E-02    0.681E-03
DAV:   6    -0.144927713575E+03   -0.19117E-06   -0.14643E-05  2290   0.170E-02
  40 F= -.14492771E+03 E0= -.14492520E+03  d E =-.904900E-03
       N       E                     dE             d eps       ncg     rms          rms(c)
DAV:   1    -0.144925221864E+03    0.24915E-02   -0.22987E+00  2940   0.618E+00    0.206E-01
DAV:   2    -0.144929853386E+03   -0.46315E-02   -0.51452E-02  3430   0.858E-01    0.112E-01
DAV:   3    -0.144929570089E+03    0.28330E-03   -0.12391E-03  3620   0.127E-01    0.747E-02
DAV:   4    -0.144929474242E+03    0.95847E-04   -0.10283E-03  3470   0.107E-01    0.458E-02
DAV:   5    -0.144929355157E+03    0.11908E-03   -0.64404E-04  3530   0.115E-01    0.168E-02
DAV:   6    -0.144929356923E+03   -0.17658E-05   -0.15765E-04  3530   0.556E-02    0.187E-02
DAV:   7    -0.144929352033E+03    0.48904E-05   -0.16988E-05  2380   0.180E-02
  41 F= -.14492935E+03 E0= -.14492685E+03  d E =-.254336E-02
       N       E                     dE             d eps       ncg     rms          rms(c)
DAV:   1    -0.144911106577E+03    0.18250E-01   -0.91885E+00  2940   0.124E+01    0.412E-01
DAV:   2    -0.144929726283E+03   -0.18620E-01   -0.20734E-01  3420   0.172E+00    0.227E-01
DAV:   3    -0.144928562390E+03    0.11639E-02   -0.49807E-03  3600   0.258E-01    0.151E-01
DAV:   4    -0.144928143875E+03    0.41851E-03   -0.40628E-03  3490   0.214E-01    0.922E-02
DAV:   5    -0.144927611966E+03    0.53191E-03   -0.26125E-03  3510   0.232E-01    0.335E-02
DAV:   6    -0.144927601246E+03    0.10721E-04   -0.64168E-04  3570   0.116E-01    0.361E-02
DAV:   7    -0.144927570380E+03    0.30865E-04   -0.91715E-05  3630   0.436E-02    0.246E-02
DAV:   8    -0.144927484557E+03    0.85823E-04   -0.14456E-05  2700   0.794E-02    0.120E-02
DAV:   9    -0.144927406370E+03    0.78187E-04   -0.32130E-05  3380   0.891E-02    0.758E-03
DAV:  10    -0.144927275822E+03    0.13055E-03   -0.77154E-05  4240   0.199E-01    0.909E-03
DAV:  11    -0.144927251044E+03    0.24778E-04   -0.10585E-04  3360   0.719E-02    0.101E-02
DAV:  12    -0.144927237455E+03    0.13589E-04   -0.31114E-05  3110   0.453E-02    0.882E-03
DAV:  13    -0.144927199114E+03    0.38341E-04   -0.16681E-05  2770   0.107E-01    0.545E-03
DAV:  14    -0.144927169893E+03    0.29221E-04   -0.60789E-05  3890   0.127E-01    0.460E-03
DAV:  15    -0.144927174236E+03   -0.43427E-05   -0.62294E-05  3170   0.301E-02
  42 F= -.14492717E+03 E0= -.14492473E+03  d E =-.365560E-03
       N       E                     dE             d eps       ncg     rms          rms(c)
DAV:   1    -0.144919901140E+03    0.72688E-02   -0.53896E+00  2940   0.942E+00    0.310E-01
DAV:   2    -0.144930721351E+03   -0.10820E-01   -0.11958E-01  3420   0.130E+00    0.173E-01
DAV:   3    -0.144930043369E+03    0.67798E-03   -0.29404E-03  3620   0.179E-01    0.113E-01
DAV:   4    -0.144929836251E+03    0.20712E-03   -0.24199E-03  3470   0.152E-01    0.697E-02
DAV:   5    -0.144929560172E+03    0.27608E-03   -0.15608E-03  3570   0.154E-01    0.233E-02
DAV:   6    -0.144929563589E+03   -0.34170E-05   -0.27107E-04  3590   0.755E-02    0.229E-02
DAV:   7    -0.144929555444E+03    0.81449E-05   -0.32094E-05  3090   0.284E-02
  43 F= -.14492956E+03 E0= -.14492711E+03  d E =-.274677E-02
       N       E                     dE             d eps       ncg     rms          rms(c)
DAV:   1    -0.144930136757E+03   -0.57317E-03   -0.24046E-01  2990   0.193E+00    0.688E-02
DAV:   2    -0.144930589501E+03   -0.45274E-03   -0.53246E-03  3460   0.274E-01    0.370E-02
DAV:   3    -0.144930553415E+03    0.36086E-04   -0.14361E-04  3610   0.544E-02    0.259E-02
DAV:   4    -0.144930524836E+03    0.28579E-04   -0.92081E-05  3170   0.433E-02    0.145E-02
DAV:   5    -0.144930492536E+03    0.32300E-04   -0.78685E-05  3260   0.576E-02    0.969E-03
DAV:   6    -0.144930483582E+03    0.89539E-05   -0.29096E-05  2890   0.333E-02
  44 F= -.14493048E+03 E0= -.14492803E+03  d E =-.928138E-03
       N       E                     dE             d eps       ncg     rms          rms(c)
DAV:   1    -0.144928813622E+03    0.16789E-02   -0.21676E+00  2940   0.583E+00    0.209E-01
DAV:   2    -0.144933064152E+03   -0.42505E-02   -0.47949E-02  3370   0.804E-01    0.109E-01
DAV:   3    -0.144932783041E+03    0.28111E-03   -0.10691E-03  3560   0.133E-01    0.739E-02
DAV:   4    -0.144932641806E+03    0.14123E-03   -0.10236E-03  3480   0.117E-01    0.428E-02
DAV:   5    -0.144932470395E+03    0.17141E-03   -0.71682E-04  3500   0.128E-01    0.233E-02
DAV:   6    -0.144932445135E+03    0.25261E-04   -0.15886E-04  3490   0.658E-02    0.229E-02
DAV:   7    -0.144932433239E+03    0.11896E-04   -0.40065E-05  3270   0.298E-02    0.171E-02
DAV:   8    -0.144932374350E+03    0.58889E-04   -0.10221E-05  2510   0.686E-02    0.977E-03
DAV:   9    -0.144932317186E+03    0.57164E-04   -0.36266E-05  3510   0.920E-02    0.776E-03
DAV:  10    -0.144932278767E+03    0.38419E-04   -0.42026E-05  3540   0.106E-01    0.719E-03
DAV:  11    -0.144932250557E+03    0.28210E-04   -0.36460E-05  3270   0.111E-01    0.857E-03
DAV:  12    -0.144932230696E+03    0.19861E-04   -0.23163E-05  3000   0.119E-01    0.405E-03
DAV:  13    -0.144932228469E+03    0.22269E-05   -0.54906E-05  3630   0.101E-01
  45 F= -.14493223E+03 E0= -.14492978E+03  d E =-.267302E-02
       N       E                     dE             d eps       ncg     rms          rms(c)
DAV:   1    -0.144916449572E+03    0.15781E-01   -0.86542E+00  2940   0.118E+01    0.420E-01
DAV:   2    -0.144933810834E+03   -0.17361E-01   -0.19432E-01  3360   0.163E+00    0.222E-01
DAV:   3    -0.144932744153E+03    0.10667E-02   -0.42730E-03  3520   0.247E-01    0.150E-01
DAV:   4    -0.144932331225E+03    0.41293E-03   -0.43225E-03  3480   0.219E-01    0.868E-02
DAV:   5    -0.144931791893E+03    0.53933E-03   -0.28427E-03  3490   0.225E-01    0.461E-02
DAV:   6    -0.144931748421E+03    0.43472E-04   -0.52012E-04  3510   0.108E-01    0.436E-02
DAV:   7    -0.144931717520E+03    0.30901E-04   -0.10145E-04  3560   0.463E-02    0.305E-02
DAV:   8    -0.144931570960E+03    0.14656E-03   -0.43445E-05  3510   0.119E-01    0.128E-02
DAV:   9    -0.144931497979E+03    0.72981E-04   -0.47152E-05  3540   0.869E-02    0.109E-02
DAV:  10    -0.144931400561E+03    0.97418E-04   -0.68639E-05  3950   0.163E-01    0.100E-02
DAV:  11    -0.144931386216E+03    0.14345E-04   -0.10912E-04  3410   0.545E-02    0.111E-02
DAV:  12    -0.144931386571E+03   -0.35506E-06   -0.17523E-05  2510   0.166E-02
  46 F= -.14493139E+03 E0= -.14492898E+03  d E =-.183113E-02
       N       E                     dE             d eps       ncg     rms          rms(c)
DAV:   1    -0.144926752061E+03    0.46342E-02   -0.32644E+00  2990   0.723E+00    0.253E-01
DAV:   2    -0.144933303650E+03   -0.65516E-02   -0.72217E-02  3250   0.978E-01    0.137E-01
DAV:   3    -0.144932908880E+03    0.39477E-03   -0.14689E-03  3510   0.136E-01    0.895E-02
DAV:   4    -0.144932809781E+03    0.99098E-04   -0.17094E-03  3460   0.123E-01    0.520E-02
DAV:   5    -0.144932640348E+03    0.16943E-03   -0.10508E-03  3590   0.111E-01    0.198E-02
DAV:   6    -0.144932639119E+03    0.12292E-05   -0.12391E-04  3520   0.531E-02    0.194E-02
DAV:   7    -0.144932634731E+03    0.43873E-05   -0.18735E-05  2620   0.209E-02
  47 F= -.14493263E+03 E0= -.14493019E+03  d E =-.307929E-02
       N       E                     dE             d eps       ncg     rms          rms(c)
DAV:   1    -0.144933132996E+03   -0.49388E-03   -0.47993E-01  2940   0.280E+00    0.102E-01
DAV:   2    -0.144934072976E+03   -0.93998E-03   -0.10678E-02  3430   0.386E-01    0.540E-02
DAV:   3    -0.144934015489E+03    0.57487E-04   -0.22865E-04  3550   0.605E-02    0.368E-02
DAV:   4    -0.144933991442E+03    0.24047E-04   -0.22208E-04  3490   0.525E-02    0.200E-02
DAV:   5    -0.144933965996E+03    0.25446E-04   -0.16618E-04  3440   0.508E-02    0.118E-02
DAV:   6    -0.144933963379E+03    0.26173E-05   -0.33449E-05  2960   0.263E-02
  48 F= -.14493396E+03 E0= -.14493151E+03  d E =-.132865E-02
       N       E                     dE             d eps       ncg     rms          rms(c)
DAV:   1    -0.144928870837E+03    0.50952E-02   -0.43252E+00  2940   0.844E+00    0.313E-01
DAV:   2    -0.144937574414E+03   -0.87036E-02   -0.97949E-02  3380   0.116E+00    0.162E-01
DAV:   3    -0.144937086188E+03    0.48823E-03   -0.18359E-03  3590   0.169E-01    0.110E-01
DAV:   4    -0.144936928256E+03    0.15793E-03   -0.21740E-03  3480   0.161E-01    0.573E-02
DAV:   5    -0.144936766009E+03    0.16225E-03   -0.14759E-03  3450   0.125E-01    0.368E-02
DAV:   6    -0.144936750405E+03    0.15604E-04   -0.20020E-04  3500   0.579E-02    0.304E-02
DAV:   7    -0.144936743272E+03    0.71331E-05   -0.39117E-05  3350   0.249E-02
  49 F= -.14493674E+03 E0= -.14493435E+03  d E =-.410854E-02
       N       E                     dE             d eps       ncg     rms          rms(c)
DAV:   1    -0.144904073350E+03    0.32677E-01   -0.17281E+01  2940   0.169E+01    0.634E-01
DAV:   2    -0.144939970835E+03   -0.35897E-01   -0.40509E-01  3410   0.236E+00    0.334E-01
DAV:   3    -0.144937912590E+03    0.20582E-02   -0.74939E-03  3550   0.344E-01    0.228E-01
DAV:   4    -0.144937236987E+03    0.67560E-03   -0.89813E-03  3470   0.331E-01    0.115E-01
DAV:   5    -0.144936615430E+03    0.62156E-03   -0.57348E-03  3520   0.239E-01    0.777E-02
DAV:   6    -0.144936548671E+03    0.66759E-04   -0.78597E-04  3530   0.114E-01    0.609E-02
DAV:   7    -0.144936519931E+03    0.28740E-04   -0.19794E-04  3650   0.583E-02    0.349E-02
DAV:   8    -0.144936486588E+03    0.33343E-04   -0.41587E-05  3410   0.621E-02    0.139E-02
DAV:   9    -0.144936469275E+03    0.17313E-04   -0.31394E-05  3430   0.566E-02    0.856E-03
DAV:  10    -0.144936462271E+03    0.70031E-05   -0.22648E-05  2820   0.442E-02
  50 F= -.14493646E+03 E0= -.14493422E+03  d E =-.382754E-02
       N       E                     dE             d eps       ncg     rms          rms(c)
DAV:   1    -0.144928717874E+03    0.77514E-02   -0.47828E+00  2940   0.887E+00    0.323E-01
DAV:   2    -0.144938388700E+03   -0.96708E-02   -0.10735E-01  3390   0.121E+00    0.170E-01
DAV:   3    -0.144937862690E+03    0.52601E-03   -0.18858E-03  3620   0.169E-01    0.112E-01
DAV:   4    -0.144937715003E+03    0.14769E-03   -0.20647E-03  3460   0.145E-01    0.568E-02
DAV:   5    -0.144937565362E+03    0.14964E-03   -0.15486E-03  3480   0.108E-01    0.310E-02
DAV:   6    -0.144937555898E+03    0.94647E-05   -0.18598E-04  3480   0.529E-02    0.245E-02
DAV:   7    -0.144937555778E+03    0.11985E-06   -0.38493E-05  3340   0.259E-02
  51 F= -.14493756E+03 E0= -.14493523E+03  d E =-.492105E-02
       N       E                     dE             d eps       ncg     rms          rms(c)
DAV:   1    -0.144937917956E+03   -0.36206E-03   -0.11098E+00  2940   0.426E+00    0.143E-01
DAV:   2    -0.144940046011E+03   -0.21281E-02   -0.23394E-02  3430   0.577E-01    0.759E-02
DAV:   3    -0.144939922599E+03    0.12341E-03   -0.36680E-04  3730   0.798E-02    0.502E-02
DAV:   4    -0.144939874686E+03    0.47912E-04   -0.45425E-04  3550   0.835E-02    0.258E-02
DAV:   5    -0.144939835543E+03    0.39143E-04   -0.36568E-04  3550   0.706E-02    0.154E-02
DAV:   6    -0.144939833527E+03    0.20169E-05   -0.51244E-05  3330   0.308E-02
  52 F= -.14493983E+03 E0= -.14493753E+03  d E =-.227775E-02
       N       E                     dE             d eps       ncg     rms          rms(c)
DAV:   1    -0.144924923969E+03    0.14912E-01   -0.98838E+00  2940   0.127E+01    0.437E-01
DAV:   2    -0.144944172233E+03   -0.19248E-01   -0.21219E-01  3420   0.173E+00    0.229E-01
DAV:   3    -0.144943047164E+03    0.11251E-02   -0.31616E-03  3740   0.254E-01    0.150E-01
DAV:   4    -0.144942594029E+03    0.45313E-03   -0.40320E-03  3480   0.262E-01    0.746E-02
DAV:   5    -0.144942266237E+03    0.32779E-03   -0.31111E-03  3600   0.205E-01    0.484E-02
DAV:   6    -0.144942234396E+03    0.31841E-04   -0.43748E-04  3510   0.909E-02    0.408E-02
DAV:   7    -0.144942204045E+03    0.30351E-04   -0.54980E-05  3570   0.374E-02    0.283E-02
DAV:   8    -0.144942129410E+03    0.74634E-04   -0.32051E-05  3300   0.859E-02    0.109E-02
DAV:   9    -0.144942080257E+03    0.49153E-04   -0.22473E-05  3100   0.769E-02    0.712E-03
DAV:  10    -0.144942037917E+03    0.42341E-04   -0.27935E-05  3250   0.863E-02    0.603E-03
DAV:  11    -0.144941995078E+03    0.42839E-04   -0.16570E-05  2750   0.998E-02    0.557E-03
DAV:  12    -0.144941947521E+03    0.47557E-04   -0.76972E-05  4060   0.191E-01    0.525E-03
DAV:  13    -0.144941959523E+03   -0.12002E-04   -0.14907E-04  3460   0.414E-02    0.721E-03
DAV:  14    -0.144941960408E+03   -0.88524E-06   -0.10105E-05  2160   0.107E-02
  53 F= -.14494196E+03 E0= -.14493977E+03  d E =-.440463E-02
       N       E                     dE             d eps       ncg     rms          rms(c)
DAV:   1    -0.144940967053E+03    0.99247E-03   -0.15930E+00  2940   0.483E+00    0.164E-01
DAV:   2    -0.144943952778E+03   -0.29857E-02   -0.32669E-02  3290   0.641E-01    0.878E-02
DAV:   3    -0.144943777799E+03    0.17498E-03   -0.57350E-04  3570   0.946E-02    0.587E-02
DAV:   4    -0.144943716052E+03    0.61747E-04   -0.71150E-04  3520   0.984E-02    0.314E-02
DAV:   5    -0.144943657598E+03    0.58454E-04   -0.49976E-04  3510   0.827E-02    0.183E-02
DAV:   6    -0.144943655737E+03    0.18614E-05   -0.58416E-05  3410   0.314E-02
  54 F= -.14494366E+03 E0= -.14494148E+03  d E =-.169533E-02
       N       E                     dE             d eps       ncg     rms          rms(c)
DAV:   1    -0.144933520741E+03    0.10137E-01   -0.66227E+00  2940   0.988E+00    0.342E-01
DAV:   2    -0.144946166159E+03   -0.12645E-01   -0.13835E-01  3310   0.132E+00    0.180E-01
DAV:   3    -0.144945427810E+03    0.73835E-03   -0.23221E-03  3620   0.197E-01    0.121E-01
DAV:   4    -0.144945129610E+03    0.29820E-03   -0.29238E-03  3550   0.211E-01    0.630E-02
DAV:   5    -0.144944881591E+03    0.24802E-03   -0.20602E-03  3550   0.177E-01    0.421E-02
DAV:   6    -0.144944863235E+03    0.18356E-04   -0.28217E-04  3480   0.715E-02    0.383E-02
DAV:   7    -0.144944846097E+03    0.17138E-04   -0.43710E-05  3480   0.265E-02    0.277E-02
DAV:   8    -0.144944775583E+03    0.70514E-04   -0.77810E-05  3510   0.781E-02    0.120E-02
DAV:   9    -0.144944753454E+03    0.22129E-04   -0.35448E-05  3240   0.451E-02    0.105E-02
DAV:  10    -0.144944736031E+03    0.17423E-04   -0.31290E-05  3080   0.423E-02    0.743E-03
DAV:  11    -0.144944715662E+03    0.20369E-04   -0.41175E-06  2430   0.368E-02    0.547E-03
DAV:  12    -0.144944681125E+03    0.34537E-04   -0.29811E-05  3260   0.893E-02    0.536E-03
DAV:  13    -0.144944670217E+03    0.10907E-04   -0.51963E-05  3780   0.873E-02    0.680E-03
DAV:  14    -0.144944674954E+03   -0.47362E-05   -0.51602E-05  3100   0.314E-02
  55 F= -.14494467E+03 E0= -.14494254E+03  d E =-.271455E-02
       N       E                     dE             d eps       ncg     rms          rms(c)
DAV:   1    -0.144944490496E+03    0.17972E-03   -0.14136E+00  2960   0.471E+00    0.166E-01
DAV:   2    -0.144947207265E+03   -0.27168E-02   -0.31259E-02  3400   0.650E-01    0.891E-02
DAV:   3    -0.144947051347E+03    0.15592E-03   -0.83078E-04  3560   0.101E-01    0.634E-02
DAV:   4    -0.144946992554E+03    0.58793E-04   -0.60823E-04  3450   0.799E-02    0.366E-02
DAV:   5    -0.144946934636E+03    0.57918E-04   -0.42134E-04  3490   0.802E-02    0.212E-02
DAV:   6    -0.144946930771E+03    0.38653E-05   -0.76820E-05  3420   0.374E-02
  56 F= -.14494693E+03 E0= -.14494479E+03  d E =-.225582E-02
       N       E                     dE             d eps       ncg     rms          rms(c)
DAV:   1    -0.144942024785E+03    0.49099E-02   -0.35919E+00  2940   0.754E+00    0.270E-01
DAV:   2    -0.144948988223E+03   -0.69634E-02   -0.80321E-02  3410   0.104E+00    0.144E-01
DAV:   3    -0.144948584139E+03    0.40408E-03   -0.20864E-03  3570   0.168E-01    0.103E-01
DAV:   4    -0.144948413640E+03    0.17050E-03   -0.15624E-03  3460   0.136E-01    0.584E-02
DAV:   5    -0.144948245292E+03    0.16835E-03   -0.10972E-03  3480   0.141E-01    0.353E-02
DAV:   6    -0.144948230825E+03    0.14467E-04   -0.23813E-04  3470   0.677E-02    0.322E-02
DAV:   7    -0.144948217673E+03    0.13152E-04   -0.54680E-05  3490   0.328E-02    0.194E-02
DAV:   8    -0.144948181199E+03    0.36474E-04   -0.25642E-05  3100   0.704E-02    0.680E-03
DAV:   9    -0.144948166003E+03    0.15196E-04   -0.18203E-05  2850   0.480E-02    0.793E-03
DAV:  10    -0.144948150780E+03    0.15224E-04   -0.95700E-06  2420   0.474E-02    0.450E-03
DAV:  11    -0.144948133172E+03    0.17608E-04   -0.35777E-06  2440   0.573E-02    0.359E-03
DAV:  12    -0.144948097968E+03    0.35205E-04   -0.12206E-05  2760   0.128E-01    0.410E-03
DAV:  13    -0.144948099820E+03   -0.18521E-05   -0.56913E-05  3720   0.230E-01
  57 F= -.14494810E+03 E0= -.14494580E+03  d E =-.342487E-02
       N       E                     dE             d eps       ncg     rms          rms(c)
DAV:   1    -0.144948077585E+03    0.20383E-04   -0.94539E-01  2980   0.395E+00    0.146E-01
DAV:   2    -0.144949923859E+03   -0.18463E-02   -0.22458E-02  3420   0.571E-01    0.796E-02
DAV:   3    -0.144949790920E+03    0.13294E-03   -0.70046E-04  3580   0.988E-02    0.568E-02
DAV:   4    -0.144949728827E+03    0.62093E-04   -0.41255E-04  3500   0.674E-02    0.342E-02
DAV:   5    -0.144949661613E+03    0.67214E-04   -0.34409E-04  3490   0.808E-02    0.190E-02
DAV:   6    -0.144949653245E+03    0.83682E-05   -0.79554E-05  3480   0.420E-02
  58 F= -.14494965E+03 E0= -.14494742E+03  d E =-.155343E-02
       N       E                     dE             d eps       ncg     rms          rms(c)
DAV:   1    -0.144948712456E+03    0.94916E-03   -0.71418E-01  2960   0.342E+00    0.129E-01
DAV:   2    -0.144950063421E+03   -0.13510E-02   -0.16804E-02  3430   0.496E-01    0.691E-02
DAV:   3    -0.144949952232E+03    0.11119E-03   -0.59308E-04  3580   0.100E-01    0.502E-02
DAV:   4    -0.144949888966E+03    0.63266E-04   -0.29343E-04  3520   0.659E-02    0.316E-02
DAV:   5    -0.144949805269E+03    0.83697E-04   -0.26862E-04  3530   0.939E-02    0.167E-02
DAV:   6    -0.144949788652E+03    0.16617E-04   -0.94816E-05  3480   0.510E-02    0.152E-02
DAV:   7    -0.144949776665E+03    0.11987E-04   -0.35430E-05  3180   0.341E-02    0.837E-03
DAV:   8    -0.144949746302E+03    0.30363E-04   -0.68868E-06  2420   0.625E-02    0.554E-03
DAV:   9    -0.144949727707E+03    0.18596E-04   -0.15989E-05  2750   0.469E-02    0.551E-03
DAV:  10    -0.144949708144E+03    0.19563E-04   -0.52282E-06  2320   0.583E-02    0.410E-03
DAV:  11    -0.144949680964E+03    0.27179E-04   -0.18409E-05  2980   0.106E-01    0.386E-03
DAV:  12    -0.144949670090E+03    0.10874E-04   -0.52876E-05  3490   0.941E-02    0.300E-03
DAV:  13    -0.144949673940E+03   -0.38500E-05   -0.57309E-05  3100   0.338E-02
  59 F= -.14494967E+03 E0= -.14494743E+03  d E =-.157412E-02
       N       E                     dE             d eps       ncg     rms          rms(c)
DAV:   1    -0.144949594892E+03    0.75198E-04   -0.11923E-01  3020   0.138E+00    0.519E-02
DAV:   2    -0.144949818367E+03   -0.22347E-03   -0.27384E-03  3420   0.198E-01    0.272E-02
DAV:   3    -0.144949802250E+03    0.16117E-04   -0.95380E-05  3550   0.372E-02    0.194E-02
DAV:   4    -0.144949794802E+03    0.74474E-05   -0.47799E-05  2410   0.227E-02    0.120E-02
DAV:   5    -0.144949786387E+03    0.84148E-05   -0.45324E-05  2650   0.293E-02    0.676E-03
DAV:   6    -0.144949784994E+03    0.13938E-05   -0.10617E-05  2190   0.165E-02
  60 F= -.14494978E+03 E0= -.14494756E+03  d E =-.168517E-02
       N       E                     dE             d eps       ncg     rms          rms(c)
DAV:   1    -0.144950183793E+03   -0.39741E-03   -0.43881E-01  2940   0.263E+00    0.948E-02
DAV:   2    -0.144950988330E+03   -0.80454E-03   -0.97013E-03  3420   0.366E-01    0.514E-02
DAV:   3    -0.144950927796E+03    0.60535E-04   -0.20844E-04  3770   0.559E-02    0.352E-02
DAV:   4    -0.144950902711E+03    0.25084E-04   -0.21131E-04  3500   0.533E-02    0.183E-02
DAV:   5    -0.144950880593E+03    0.22118E-04   -0.14385E-04  3510   0.462E-02    0.100E-02
DAV:   6    -0.144950878351E+03    0.22426E-05   -0.22267E-05  2480   0.217E-02
  61 F= -.14495088E+03 E0= -.14494864E+03  d E =-.109336E-02
       N       E                     dE             d eps       ncg     rms          rms(c)
DAV:   1    -0.144950430774E+03    0.44982E-03   -0.52602E-01  2940   0.288E+00    0.106E-01
DAV:   2    -0.144951397553E+03   -0.96678E-03   -0.11725E-02  3420   0.404E-01    0.568E-02
DAV:   3    -0.144951321321E+03    0.76232E-04   -0.24668E-04  3800   0.653E-02    0.393E-02
DAV:   4    -0.144951282963E+03    0.38358E-04   -0.25643E-04  3510   0.646E-02    0.202E-02
DAV:   5    -0.144951251056E+03    0.31907E-04   -0.17823E-04  3570   0.565E-02    0.125E-02
DAV:   6    -0.144951245908E+03    0.51482E-05   -0.34556E-05  2970   0.276E-02
  62 F= -.14495125E+03 E0= -.14494901E+03  d E =-.146091E-02
       N       E                     dE             d eps       ncg     rms          rms(c)
DAV:   1    -0.144951438950E+03   -0.18789E-03   -0.35669E-01  2940   0.243E+00    0.921E-02
DAV:   2    -0.144952119559E+03   -0.68061E-03   -0.86629E-03  3410   0.362E-01    0.530E-02
DAV:   3    -0.144952052306E+03    0.67253E-04   -0.18825E-04  3730   0.668E-02    0.380E-02
DAV:   4    -0.144951989765E+03    0.62541E-04   -0.13372E-04  3520   0.625E-02    0.166E-02
DAV:   5    -0.144951967292E+03    0.22473E-04   -0.54951E-05  3490   0.478E-02    0.122E-02
DAV:   6    -0.144951955502E+03    0.11790E-04   -0.36923E-05  3060   0.344E-02    0.658E-03
DAV:   7    -0.144951943007E+03    0.12495E-04   -0.13741E-05  2220   0.286E-02    0.510E-03
DAV:   8    -0.144951931207E+03    0.11800E-04   -0.59426E-06  2370   0.279E-02    0.415E-03
DAV:   9    -0.144951916747E+03    0.14460E-04   -0.46821E-06  2300   0.364E-02    0.293E-03
DAV:  10    -0.144951898392E+03    0.18355E-04   -0.84488E-06  2520   0.556E-02    0.296E-03
DAV:  11    -0.144951887109E+03    0.11282E-04   -0.18498E-05  2780   0.538E-02    0.256E-03
DAV:  12    -0.144951881173E+03    0.59368E-05   -0.13475E-05  2520   0.467E-02
  63 F= -.14495188E+03 E0= -.14494966E+03  d E =-.635265E-03
       N       E                     dE             d eps       ncg     rms          rms(c)
DAV:   1    -0.144951872977E+03    0.14133E-04   -0.56680E-03  3390   0.309E-01    0.112E-02
DAV:   2    -0.144951886255E+03   -0.13279E-04   -0.16378E-04  3500   0.492E-02    0.901E-03
DAV:   3    -0.144951884714E+03    0.15412E-05   -0.32650E-06  2230   0.895E-03    0.623E-03
DAV:   4    -0.144951883026E+03    0.16882E-05   -0.61113E-06  2230   0.121E-02    0.232E-03
DAV:   5    -0.144951882603E+03    0.42302E-06   -0.23704E-06  2190   0.690E-03    0.213E-03
DAV:   6    -0.144951882263E+03    0.34010E-06   -0.55732E-07  2140   0.523E-03
  64 F= -.14495188E+03 E0= -.14494966E+03  d E =-.636355E-03
       N       E                     dE             d eps       ncg     rms          rms(c)
DAV:   1    -0.144952158042E+03   -0.27544E-03   -0.31969E-01  2960   0.228E+00    0.884E-02
DAV:   2    -0.144952766469E+03   -0.60843E-03   -0.76237E-03  3450   0.330E-01    0.494E-02
DAV:   3    -0.144952711312E+03    0.55157E-04   -0.15041E-04  3750   0.590E-02    0.345E-02
DAV:   4    -0.144952665888E+03    0.45425E-04   -0.96386E-05  3510   0.589E-02    0.144E-02
DAV:   5    -0.144952648388E+03    0.17500E-04   -0.52401E-05  3430   0.456E-02    0.101E-02
DAV:   6    -0.144952642250E+03    0.61381E-05   -0.30633E-05  2620   0.262E-02
  65 F= -.14495264E+03 E0= -.14495042E+03  d E =-.759987E-03
       N       E                     dE             d eps       ncg     rms          rms(c)
DAV:   1    -0.144952596056E+03    0.52333E-04   -0.76402E-02  2940   0.112E+00    0.439E-02
DAV:   2    -0.144952723493E+03   -0.12744E-03   -0.18395E-03  3450   0.167E-01    0.251E-02
DAV:   3    -0.144952697724E+03    0.25769E-04   -0.50070E-05  3680   0.398E-02    0.182E-02
DAV:   4    -0.144952666041E+03    0.31683E-04   -0.24389E-05  2520   0.420E-02    0.932E-03
DAV:   5    -0.144952638769E+03    0.27272E-04   -0.30200E-05  2550   0.471E-02    0.667E-03
DAV:   6    -0.144952632212E+03    0.65564E-05   -0.22685E-05  2550   0.230E-02
  66 F= -.14495263E+03 E0= -.14495041E+03  d E =-.749949E-03
       N       E                     dE             d eps       ncg     rms          rms(c)
DAV:   1    -0.144952846239E+03   -0.20747E-03   -0.28206E-01  2940   0.216E+00    0.910E-02
DAV:   2    -0.144953354669E+03   -0.50843E-03   -0.73832E-03  3480   0.337E-01    0.552E-02
DAV:   3    -0.144953274260E+03    0.80409E-04   -0.19464E-04  3830   0.672E-02    0.411E-02
DAV:   4    -0.144953181110E+03    0.93150E-04   -0.17725E-04  3520   0.776E-02    0.175E-02
DAV:   5    -0.144953141723E+03    0.39387E-04   -0.59366E-05  3520   0.534E-02    0.153E-02
DAV:   6    -0.144953111331E+03    0.30391E-04   -0.42241E-05  3120   0.457E-02    0.670E-03
DAV:   7    -0.144953082234E+03    0.29097E-04   -0.95685E-06  2420   0.430E-02    0.590E-03
DAV:   8    -0.144953057810E+03    0.24423E-04   -0.12340E-05  2290   0.419E-02    0.587E-03
DAV:   9    -0.144953014350E+03    0.43460E-04   -0.16177E-05  2590   0.767E-02    0.483E-03
DAV:  10    -0.144952992582E+03    0.21768E-04   -0.30685E-05  3030   0.517E-02    0.618E-03
DAV:  11    -0.144952960854E+03    0.31728E-04   -0.43314E-06  2480   0.770E-02    0.469E-03
DAV:  12    -0.144952938758E+03    0.22096E-04   -0.32979E-05  3090   0.780E-02    0.472E-03
DAV:  13    -0.144952926408E+03    0.12350E-04   -0.27923E-05  2940   0.750E-02    0.334E-03
DAV:  14    -0.144952922538E+03    0.38709E-05   -0.30352E-05  3060   0.639E-02
  67 F= -.14495292E+03 E0= -.14495063E+03  d E =-.290325E-03
       N       E                     dE             d eps       ncg     rms          rms(c)
DAV:   1    -0.144952892990E+03    0.33419E-04   -0.40117E-02  3190   0.812E-01    0.355E-02
DAV:   2    -0.144952968187E+03   -0.75197E-04   -0.10607E-03  3450   0.128E-01    0.211E-02
DAV:   3    -0.144952959705E+03    0.84811E-05   -0.27852E-05  3050   0.251E-02    0.155E-02
DAV:   4    -0.144952953867E+03    0.58388E-05   -0.33504E-05  3070   0.275E-02    0.649E-03
DAV:   5    -0.144952953547E+03    0.31986E-06   -0.65649E-06  2250   0.150E-02    0.586E-03
DAV:   6    -0.144952953453E+03    0.93967E-07   -0.56331E-06  2230   0.136E-02
  68 F= -.14495295E+03 E0= -.14495068E+03  d E =-.321241E-03
       N       E                     dE             d eps       ncg     rms          rms(c)
DAV:   1    -0.144953499806E+03   -0.54626E-03   -0.18374E-01  3110   0.176E+00    0.690E-02
DAV:   2    -0.144953823782E+03   -0.32398E-03   -0.49794E-03  3510   0.288E-01    0.475E-02
DAV:   3    -0.144953752315E+03    0.71467E-04   -0.19275E-04  3710   0.748E-02    0.359E-02
DAV:   4    -0.144953677761E+03    0.74554E-04   -0.10225E-04  3490   0.660E-02    0.192E-02
DAV:   5    -0.144953598160E+03    0.79601E-04   -0.88726E-05  3330   0.859E-02    0.133E-02
DAV:   6    -0.144953582956E+03    0.15203E-04   -0.85203E-05  3370   0.441E-02    0.136E-02
DAV:   7    -0.144953566615E+03    0.16341E-04   -0.12847E-05  2250   0.248E-02    0.849E-03
DAV:   8    -0.144953486039E+03    0.80576E-04   -0.27377E-05  3110   0.101E-01    0.738E-03
DAV:   9    -0.144953445157E+03    0.40882E-04   -0.30317E-05  3100   0.645E-02    0.886E-03
DAV:  10    -0.144953368898E+03    0.76259E-04   -0.25331E-05  3110   0.134E-01    0.651E-03
DAV:  11    -0.144953294100E+03    0.74798E-04   -0.10861E-04  4470   0.188E-01    0.644E-03
DAV:  12    -0.144953289022E+03    0.50781E-05   -0.13011E-04  3220   0.674E-02    0.753E-03
DAV:  13    -0.144953280809E+03    0.82130E-05   -0.17204E-05  2570   0.504E-02
  69 F= -.14495328E+03 E0= -.14495100E+03  d E =-.327356E-03
       N       E                     dE             d eps       ncg     rms          rms(c)
DAV:   1    -0.144953439471E+03   -0.15045E-03   -0.25816E-02  3400   0.661E-01    0.254E-02
DAV:   2    -0.144953495943E+03   -0.56472E-04   -0.78921E-04  3510   0.111E-01    0.225E-02
DAV:   3    -0.144953484795E+03    0.11148E-04   -0.26594E-05  2780   0.307E-02    0.165E-02
DAV:   4    -0.144953473765E+03    0.11029E-04   -0.22595E-05  2590   0.320E-02    0.839E-03
DAV:   5    -0.144953465598E+03    0.81669E-05   -0.17256E-05  2210   0.337E-02    0.528E-03
DAV:   6    -0.144953464457E+03    0.11412E-05   -0.15648E-05  2200   0.185E-02
  70 F= -.14495346E+03 E0= -.14495119E+03  d E =-.511004E-03
       N       E                     dE             d eps       ncg     rms          rms(c)
DAV:   1    -0.144953471602E+03   -0.60033E-05   -0.11700E-03  3340   0.142E-01    0.639E-03
DAV:   2    -0.144953468419E+03    0.31830E-05   -0.32459E-05  3070   0.310E-02    0.542E-03
DAV:   3    -0.144953465513E+03    0.29054E-05   -0.49551E-06  2120   0.159E-02    0.502E-03
DAV:   4    -0.144953462376E+03    0.31373E-05   -0.11536E-06  2130   0.127E-02    0.379E-03
DAV:   5    -0.144953450956E+03    0.11420E-04   -0.57223E-06  2300   0.471E-02    0.359E-03
DAV:   6    -0.144953449937E+03    0.10185E-05   -0.10270E-05  2310   0.143E-02
  71 F= -.14495345E+03 E0= -.14495117E+03  d E =-.496484E-03
       N       E                     dE             d eps       ncg     rms          rms(c)
DAV:   1    -0.144953671591E+03   -0.22064E-03   -0.39444E-02  3030   0.808E-01    0.280E-02
DAV:   2    -0.144953729420E+03   -0.57828E-04   -0.87941E-04  3460   0.119E-01    0.172E-02
DAV:   3    -0.144953720006E+03    0.94132E-05   -0.30644E-05  3060   0.296E-02    0.125E-02
DAV:   4    -0.144953712957E+03    0.70497E-05   -0.11422E-05  2230   0.207E-02    0.657E-03
DAV:   5    -0.144953708158E+03    0.47988E-05   -0.11103E-05  2320   0.253E-02    0.391E-03
DAV:   6    -0.144953707584E+03    0.57351E-06   -0.10040E-05  2150   0.148E-02
  72 F= -.14495371E+03 E0= -.14495142E+03  d E =-.257647E-03
