 vasp.5.4.4.18Apr17-6-g9f103f2a35 (build Nov 15 2019 10:10:58) complex          
  
 executed on             LinuxIFC date 2024.09.28  15:04:23
 running on   20 total cores
 distrk:  each k-point on   20 cores,    1 groups
 distr:  one band on NCORES_PER_BAND=   4 cores,    5 groups


--------------------------------------------------------------------------------------------------------


 INCAR:
 POTCAR:    PAW_PBE O 08Apr2002                   
 POTCAR:    PAW_PBE Mg 13Apr2007                  
 POTCAR:    PAW_PBE O 08Apr2002                   
   VRHFIN =O: s2p4                                                              
   LEXCH  = PE                                                                  
   EATOM  =   432.3788 eV,   31.7789 Ry                                         
                                                                                
   TITEL  = PAW_PBE O 08Apr2002                                                 
   LULTRA =        F    use ultrasoft PP ?                                      
   IUNSCR =        1    unscreen: 0-lin 1-nonlin 2-no                           
   RPACOR =    1.200    partial core radius                                     
   POMASS =   16.000; ZVAL   =    6.000    mass and valenz                      
   RCORE  =    1.520    outmost cutoff radius                                   
   RWIGS  =    1.550; RWIGS  =    0.820    wigner-seitz radius (au A)           
   ENMAX  =  400.000; ENMIN  =  300.000 eV                                      
   ICORE  =        2    local potential                                         
   LCOR   =        T    correct aug charges                                     
   LPAW   =        T    paw PP                                                  
   EAUG   =  605.392                                                            
   DEXC   =    0.000                                                            
   RMAX   =    1.553    core radius for proj-oper                               
   RAUG   =    1.300    factor for augmentation sphere                          
   RDEP   =    1.550    radius for radial grids                                 
   RDEPT  =    1.329    core radius for aug-charge                              
                                                                                
   Atomic configuration                                                         
    4 entries                                                                   
     n  l   j            E        occ.                                          
     1  0  0.50      -514.6923   2.0000                                         
     2  0  0.50       -23.9615   2.0000                                         
     2  1  0.50        -9.0305   4.0000                                         
     3  2  1.50        -9.5241   0.0000                                         
   Description                                                                  
     l       E           TYP  RCUT    TYP  RCUT                                 
     0    -23.9615318     23  1.200                                             
     0     -9.5240782     23  1.200                                             
     1     -9.0304911     23  1.520                                             
     1      8.1634956     23  1.520                                             
     2     -9.5240782      7  1.500                                             
  local pseudopotential read in
  partial core-charges read in
  partial kinetic energy density read in
  kinetic energy density of atom read in
  atomic valenz-charges read in
  non local Contribution for L=           0  read in
    real space projection operators read in
  non local Contribution for L=           0  read in
    real space projection operators read in
  non local Contribution for L=           1  read in
    real space projection operators read in
  non local Contribution for L=           1  read in
    real space projection operators read in
    PAW grid and wavefunctions read in
 
   number of l-projection  operators is LMAX  =           4
   number of lm-projection operators is LMMAX =           8
 
 POTCAR:    PAW_PBE Mg 13Apr2007                  
   VRHFIN =Mg: s2p0                                                             
   LEXCH  = PE                                                                  
   EATOM  =    23.0369 eV,    1.6932 Ry                                         
                                                                                
   TITEL  = PAW_PBE Mg 13Apr2007                                                
   LULTRA =        F    use ultrasoft PP ?                                      
   IUNSCR =        1    unscreen: 0-lin 1-nonlin 2-no                           
   RPACOR =    1.500    partial core radius                                     
   POMASS =   24.305; ZVAL   =    2.000    mass and valenz                      
   RCORE  =    2.000    outmost cutoff radius                                   
   RWIGS  =    2.880; RWIGS  =    1.524    wigner-seitz radius (au A)           
   ENMAX  =  200.000; ENMIN  =  100.000 eV                                      
   RCLOC  =    1.506    cutoff for local pot                                    
   LCOR   =        T    correct aug charges                                     
   LPAW   =        T    paw PP                                                  
   EAUG   =  454.734                                                            
   DEXC   =    0.000                                                            
   RMAX   =    2.045    core radius for proj-oper                               
   RAUG   =    1.300    factor for augmentation sphere                          
   RDEP   =    2.025    radius for radial grids                                 
   RDEPT  =    1.942    core radius for aug-charge                              
                                                                                
   Atomic configuration                                                         
    6 entries                                                                   
     n  l   j            E        occ.                                          
     1  0  0.50     -1259.6230   2.0000                                         
     2  0  0.50       -79.8442   2.0000                                         
     2  1  1.50       -46.6121   6.0000                                         
     3  0  0.50        -4.7055   2.0000                                         
     3  1  0.50        -1.3660   0.0000                                         
     3  2  1.50        -1.3606   0.0000                                         
   Description                                                                  
     l       E           TYP  RCUT    TYP  RCUT                                 
     0     -4.7054661     23  2.000                                             
     0     27.2116520     23  2.000                                             
     1      1.3605826     23  2.000                                             
     1     27.2116520     23  2.000                                             
     2     -1.3605826     23  2.000                                             
  local pseudopotential read in
  partial core-charges read in
  partial kinetic energy density read in
  atomic valenz-charges read in
  non local Contribution for L=           0  read in
    real space projection operators read in
  non local Contribution for L=           0  read in
    real space projection operators read in
  non local Contribution for L=           1  read in
    real space projection operators read in
  non local Contribution for L=           1  read in
    real space projection operators read in
  non local Contribution for L=           2  read in
    real space projection operators read in
    PAW grid and wavefunctions read in
 
   number of l-projection  operators is LMAX  =           5
   number of lm-projection operators is LMMAX =          13
 

 ----------------------------------------------------------------------------- 
|                                                                             |
|  ADVICE TO THIS USER RUNNING 'VASP/VAMP'   (HEAR YOUR MASTER'S VOICE ...):  |
|                                                                             |
|      You have a (more or less) 'large supercell' and for larger cells       |
|      it might be more efficient to use real space projection opertators     |
|      So try LREAL= Auto  in the INCAR   file.                               |
|      Mind:          For very  accurate calculation you might also keep the  |
|      reciprocal projection scheme          (i.e. LREAL=.FALSE.)             |
|                                                                             |
 ----------------------------------------------------------------------------- 

  PAW_PBE O 08Apr2002                   :
 energy of atom  1       EATOM= -432.3788
 kinetic energy error for atom=    0.0389 (will be added to EATOM!!)
  PAW_PBE Mg 13Apr2007                  :
 energy of atom  2       EATOM=  -23.0369
 kinetic energy error for atom=    0.0001 (will be added to EATOM!!)
 
 
 POSCAR: Layer(26)                               
  positions in direct lattice
  velocities in cartesian coordinates
 exchange correlation table for  LEXCH =        8
   RHO(1)=    0.500       N(1)  =     2000
   RHO(2)=  100.500       N(2)  =     4000

 VTST: version 3.2, (02/03/18)

 CHAIN: initializing optimizer
 
 OPT: Using VASP Conjugate-Gradient optimizer
 CHAIN: Read ICHAIN            0
 
 POSCAR: Layer(26)                               
  positions in direct lattice
  velocities in cartesian coordinates
 


--------------------------------------------------------------------------------------------------------


 ion  position               nearest neighbor table
   1  0.478  0.522  0.448-  14 2.10  14 2.20  14 2.20
   2  0.515  0.485  0.554-  15 2.07  15 2.07  15 2.09  16 2.16  16 2.16  16 2.19
   3  0.527  0.473  0.661-  17 2.07  17 2.07  17 2.09  18 2.16  18 2.16  18 2.20
   4  0.542  0.458  0.766-  19 1.97  19 1.97  19 1.97
   5  0.837  0.163  0.483-  14 2.07  14 2.07  14 2.09  11 2.16  11 2.16  11 2.19
   6  0.176  0.824  0.519-  11 2.07  11 2.07  11 2.09  15 2.16  15 2.16  15 2.19
   7  0.852  0.148  0.590-  16 2.07  16 2.07  16 2.09  12 2.16  12 2.16  12 2.20
   8  0.190  0.810  0.626-  12 2.07  12 2.07  12 2.09  17 2.16  17 2.16  17 2.20
   9  0.865  0.135  0.697-  18 2.07  18 2.07  18 2.09  13 2.16  13 2.16  13 2.20
  10  0.203  0.797  0.732-  13 2.06  13 2.06  13 2.07  19 2.20  19 2.20  19 2.25
  11  0.505  0.495  0.502-   6 2.07   6 2.07   6 2.09   5 2.16   5 2.16   5 2.19  15 3.01  15 3.01
                            14 3.01  14 3.01  14 3.01  15 3.01
  12  0.520  0.480  0.609-   8 2.07   8 2.07   8 2.09   7 2.16   7 2.16   7 2.20  17 3.01  16 3.01
                            16 3.01  16 3.01  17 3.01  17 3.01
  13  0.532  0.468  0.716-  10 2.06  10 2.06  10 2.07   9 2.16   9 2.16   9 2.20  18 3.01  18 3.01
                            18 3.01  19 3.04  19 3.05  19 3.05
  14  0.167  0.833  0.466-   5 2.07   5 2.07   5 2.09   1 2.10   1 2.20   1 2.20  11 3.01  11 3.01
                            11 3.01
  15  0.844  0.156  0.538-   2 2.07   2 2.07   2 2.09   6 2.16   6 2.16   6 2.19  16 3.01  11 3.01
                            11 3.01  11 3.01  16 3.01  16 3.01
  16  0.182  0.818  0.573-   7 2.07   7 2.07   7 2.09   2 2.16   2 2.16   2 2.19  12 3.01  15 3.01
                            15 3.01  15 3.01  12 3.01  12 3.01
  17  0.857  0.143  0.645-   3 2.07   3 2.07   3 2.09   8 2.16   8 2.16   8 2.20  12 3.01  18 3.01
                            12 3.01  12 3.01  18 3.01  18 3.01
  18  0.194  0.806  0.680-   9 2.07   9 2.07   9 2.09   3 2.16   3 2.16   3 2.20  17 3.01  13 3.01
                            17 3.01  17 3.01  13 3.01  13 3.01
  19  0.869  0.131  0.752-   4 1.97   4 1.97   4 1.97  10 2.20  10 2.20  10 2.25  13 3.04  13 3.05
                            13 3.05
 
  LATTYP: Found a base centered monoclinic cell.
 ALAT       =     5.2328582782
 B/A-ratio  =     0.5683425909
 C/A-ratio  =    13.2634916918
 COS(beta)  =    -0.0797902432
  
  Lattice vectors:
  
 A1 = (  -2.5959741503,   1.5223026026,   0.0216319808)
 A2 = (  -0.0203658138,   3.0093305668,   0.0216319763)
 A3 = (   2.8991083346,  -5.0214023511, -69.1633550357)


Analysis of symmetry for initial positions (statically):
=====================================================================
 Subroutine PRICEL returns:
 Original cell was already a primitive cell.
 

 Routine SETGRP: Setting up the symmetry group for a 
 base centered monoclinic supercell.


 Subroutine GETGRP returns: Found  2 space group operations
 (whereof  2 operations were pure point group operations)
 out of a pool of  4 trial point group operations.


The static configuration has the point symmetry C_1h.


Analysis of symmetry for dynamics (positions and initial velocities):
=====================================================================
 Subroutine PRICEL returns:
 Original cell was already a primitive cell.
 

 Routine SETGRP: Setting up the symmetry group for a 
 base centered monoclinic supercell.


 Subroutine GETGRP returns: Found  2 space group operations
 (whereof  2 operations were pure point group operations)
 out of a pool of  4 trial point group operations.


The dynamic configuration has the point symmetry C_1h.


Analysis of constrained symmetry for selective dynamics:
=====================================================================
 Subroutine PRICEL returns:
 Original cell was already a primitive cell.
 

 Routine SETGRP: Setting up the symmetry group for a 
 base centered monoclinic supercell.


 Subroutine GETGRP returns: Found  2 space group operations
 (whereof  2 operations were pure point group operations)
 out of a pool of  4 trial point group operations.


The constrained configuration has the point symmetry C_1h.


 Subroutine INISYM returns: Found  2 space group operations
 (whereof  2 operations are pure point group operations),
 and found     1 'primitive' translations

 
 
 KPOINTS: K-Spacing Value to Generate K-Mesh: 0.02

Automatic generation of k-mesh.
Space group operators:
 irot       det(A)        alpha          n_x          n_y          n_z        tau_x        tau_y        tau_z
    1     1.000000     0.000000     1.000000     0.000000     0.000000     0.000000     0.000000     0.000000
    2    -1.000000   180.000000     0.866025     0.500000    -0.000000     0.000000     0.000000     0.000000
 
 Subroutine IBZKPT returns following result:
 ===========================================
 
 Found     49 irreducible k-points:
 
 Following reciprocal coordinates:
            Coordinates               Weight
  0.000000  0.000000  0.000000      1.000000
  0.076923 -0.000000  0.000000      4.000000
  0.153846 -0.000000 -0.000000      4.000000
  0.230769 -0.000000 -0.000000      4.000000
  0.307692 -0.000000  0.000000      4.000000
  0.384615 -0.000000 -0.000000      4.000000
  0.461538 -0.000000 -0.000000      4.000000
  0.076923  0.076923 -0.000000      2.000000
  0.153846  0.076923 -0.000000      4.000000
  0.230769  0.076923 -0.000000      4.000000
  0.307692  0.076923  0.000000      4.000000
  0.384615  0.076923 -0.000000      4.000000
  0.461538  0.076923  0.000000      4.000000
 -0.461538  0.076923  0.000000      4.000000
 -0.384615  0.076923  0.000000      4.000000
 -0.307692  0.076923  0.000000      4.000000
 -0.230769  0.076923 -0.000000      4.000000
 -0.153846  0.076923  0.000000      4.000000
 -0.076923  0.076923 -0.000000      2.000000
  0.153846  0.153846 -0.000000      2.000000
  0.230769  0.153846 -0.000000      4.000000
  0.307692  0.153846 -0.000000      4.000000
  0.384615  0.153846 -0.000000      4.000000
  0.461538  0.153846 -0.000000      4.000000
 -0.461538  0.153846 -0.000000      4.000000
 -0.384615  0.153846 -0.000000      4.000000
 -0.307692  0.153846  0.000000      4.000000
 -0.230769  0.153846  0.000000      4.000000
 -0.153846  0.153846 -0.000000      2.000000
  0.230769  0.230769 -0.000000      2.000000
  0.307692  0.230769 -0.000000      4.000000
  0.384615  0.230769 -0.000000      4.000000
  0.461538  0.230769 -0.000000      4.000000
 -0.461538  0.230769  0.000000      4.000000
 -0.384615  0.230769  0.000000      4.000000
 -0.307692  0.230769 -0.000000      4.000000
 -0.230769  0.230769 -0.000000      2.000000
  0.307692  0.307692 -0.000000      2.000000
  0.384615  0.307692 -0.000000      4.000000
  0.461538  0.307692 -0.000000      4.000000
 -0.461538  0.307692 -0.000000      4.000000
 -0.384615  0.307692 -0.000000      4.000000
 -0.307692  0.307692 -0.000000      2.000000
  0.384615  0.384615  0.000000      2.000000
  0.461538  0.384615 -0.000000      4.000000
 -0.461538  0.384615 -0.000000      4.000000
 -0.384615  0.384615 -0.000000      2.000000
  0.461538  0.461538 -0.000000      2.000000
 -0.461538  0.461538 -0.000000      2.000000
 
 Following cartesian coordinates:
            Coordinates               Weight
  0.000000  0.000000  0.000000      1.000000
  0.029750  0.000200  0.000120      4.000000
  0.059500  0.000401  0.000241      4.000000
  0.089251  0.000601  0.000361      4.000000
  0.119001  0.000802  0.000481      4.000000
  0.148751  0.001002  0.000601      4.000000
  0.178501  0.001203  0.000722      4.000000
  0.044799  0.025865 -0.000000      2.000000
  0.074549  0.026065  0.000120      4.000000
  0.104299  0.026266  0.000241      4.000000
  0.134050  0.026466  0.000361      4.000000
  0.163800  0.026667  0.000481      4.000000
  0.193550  0.026867  0.000601      4.000000
 -0.163453  0.024461 -0.000842      4.000000
 -0.133702  0.024662 -0.000722      4.000000
 -0.103952  0.024862 -0.000601      4.000000
 -0.074202  0.025063 -0.000481      4.000000
 -0.044452  0.025263 -0.000361      4.000000
 -0.014702  0.025464 -0.000241      2.000000
  0.089598  0.051729 -0.000000      2.000000
  0.119348  0.051930  0.000120      4.000000
  0.149098  0.052130  0.000241      4.000000
  0.178849  0.052331  0.000361      4.000000
  0.208599  0.052531  0.000481      4.000000
 -0.148404  0.050126 -0.000962      4.000000
 -0.118654  0.050326 -0.000842      4.000000
 -0.088903  0.050527 -0.000722      4.000000
 -0.059153  0.050727 -0.000601      4.000000
 -0.029403  0.050928 -0.000481      2.000000
  0.134397  0.077594 -0.000000      2.000000
  0.164147  0.077795  0.000120      4.000000
  0.193897  0.077995  0.000241      4.000000
  0.223648  0.078196  0.000361      4.000000
 -0.133355  0.075790 -0.001083      4.000000
 -0.103605  0.075990 -0.000962      4.000000
 -0.073855  0.076191 -0.000842      4.000000
 -0.044105  0.076391 -0.000722      2.000000
  0.179196  0.103459 -0.000000      2.000000
  0.208946  0.103659  0.000120      4.000000
  0.238696  0.103860  0.000241      4.000000
 -0.118307  0.101454 -0.001203      4.000000
 -0.088556  0.101655 -0.001083      4.000000
 -0.058806  0.101855 -0.000962      2.000000
  0.223995  0.129324 -0.000000      2.000000
  0.253745  0.129524  0.000120      4.000000
 -0.103258  0.127118 -0.001323      4.000000
 -0.073508  0.127319 -0.001203      2.000000
  0.268794  0.155188 -0.000000      2.000000
 -0.088209  0.152783 -0.001443      2.000000
 


--------------------------------------------------------------------------------------------------------




 Dimension of arrays:
   k-points           NKPTS =     49   k-points in BZ     NKDIM =     49   number of bands    NBANDS=     50
   number of dos      NEDOS =    301   number of ions     NIONS =     19
   non local maximal  LDIM  =      5   non local SUM 2l+1 LMDIM =     13
   total plane-waves  NPLWV = 311040
   max r-space proj   IRMAX =      1   max aug-charges    IRDMAX= 196726
   dimension x,y,z NGX =    24 NGY =   24 NGZ =  540
   dimension x,y,z NGXF=    48 NGYF=   48 NGZF= 1080
   support grid    NGXF=    96 NGYF=   96 NGZF= 2160
   ions per type =              10   9
   NGX,Y,Z   is equivalent  to a cutoff of  13.26, 13.26, 12.99 a.u.
   NGXF,Y,Z  is equivalent  to a cutoff of  26.52, 26.52, 25.98 a.u.

 Based on PREC, I would recommend the following setting:
   dimension x,y,z NGX =    24 NGY =   24 NGZ =  480

 SYSTEM =  unknown system                          
 POSCAR =  Layer(26)                               

 Startparameter for this run:
   NWRITE =      2    write-flag & timer
   PREC   = accura    normal or accurate (medium, high low for compatibility)
   ISTART =      0    job   : 0-new  1-cont  2-samecut
   ICHARG =      2    charge: 1-file 2-atom 10-const
   ISPIN  =      1    spin polarized calculation?
   LNONCOLLINEAR =      F non collinear calculations
   LSORBIT =      F    spin-orbit coupling
   INIWAV =      1    electr: 0-lowe 1-rand  2-diag
   LASPH  =      F    aspherical Exc in radial PAW
   METAGGA=      F    non-selfconsistent MetaGGA calc.

 Electronic Relaxation 1
   ENCUT  =  450.0 eV  33.07 Ry    5.75 a.u.   5.21  5.21119.56*2*pi/ulx,y,z
   ENINI  =  450.0     initial cutoff
   ENAUG  =  605.4 eV  augmentation charge cutoff
   NELM   =    100;   NELMIN=  6; NELMDL=  0     # of ELM steps 
   EDIFF  = 0.1E-05   stopping-criterion for ELM
   LREAL  =      F    real-space projection
   NLSPLINE    = F    spline interpolate recip. space projectors
   LCOMPAT=      F    compatible to vasp.4.4
   GGA_COMPAT  = T    GGA compatible to vasp.4.4-vasp.4.6
   LMAXPAW     = -100 max onsite density
   LMAXMIX     =    2 max onsite mixed and CHGCAR
   VOSKOWN=      0    Vosko Wilk Nusair interpolation
   ROPT   =    0.00000   0.00000
 Ionic relaxation
   EDIFFG = -.2E-01   stopping-criterion for IOM
   NSW    =      0    number of steps for IOM
   NBLOCK =      1;   KBLOCK =      1    inner block; outer block 
   IBRION =     -1    ionic relax: 0-MD 1-quasi-New 2-CG
   NFREE  =      1    steps in history (QN), initial steepest desc. (CG)
   ISIF   =      4    stress and relaxation
   IWAVPR =     10    prediction:  0-non 1-charg 2-wave 3-comb
   ISYM   =      2    0-nonsym 1-usesym 2-fastsym
   LCORR  =      T    Harris-Foulkes like correction to forces

   POTIM  = 0.5000    time-step for ionic-motion
   TEIN   =    0.0    initial temperature
   TEBEG  =    0.0;   TEEND  =   0.0 temperature during run
   SMASS  =  -3.00    Nose mass-parameter (am)
   estimated Nose-frequenzy (Omega)   =  0.10E-29 period in steps =****** mass=  -0.207E-27a.u.
   SCALEE = 1.0000    scale energy and forces
   NPACO  =    256;   APACO  = 16.0  distance and # of slots for P.C.
   PSTRESS=    0.0 pullay stress

  Mass of Ions in am
   POMASS =  16.00 24.30
  Ionic Valenz
   ZVAL   =   6.00  2.00
  Atomic Wigner-Seitz radii
   RWIGS  =  -1.00 -1.00
  virtual crystal weights 
   VCA    =   1.00  1.00
   NELECT =      78.0000    total number of electrons
   NUPDOWN=      -1.0000    fix difference up-down

 DOS related values:
   EMIN   =  10.00;   EMAX   =-10.00  energy-range for DOS
   EFERMI =   0.00
   ISMEAR =     0;   SIGMA  =   0.05  broadening in eV -4-tet -1-fermi 0-gaus

 Electronic relaxation 2 (details)
   IALGO  =     38    algorithm
   LDIAG  =      T    sub-space diagonalisation (order eigenvalues)
   LSUBROT=      F    optimize rotation matrix (better conditioning)
   TURBO    =      0    0=normal 1=particle mesh
   IRESTART =      0    0=no restart 2=restart with 2 vectors
   NREBOOT  =      0    no. of reboots
   NMIN     =      0    reboot dimension
   EREF     =   0.00    reference energy to select bands
   IMIX   =      4    mixing-type and parameters
     AMIX     =   0.40;   BMIX     =  1.00
     AMIX_MAG =   1.60;   BMIX_MAG =  1.00
     AMIN     =   0.01
     WC   =   100.;   INIMIX=   1;  MIXPRE=   1;  MAXMIX= -45

 Intra band minimization:
   WEIMIN = 0.0000     energy-eigenvalue tresh-hold
   EBREAK =  0.50E-08  absolut break condition
   DEPER  =   0.30     relativ break condition  

   TIME   =   0.40     timestep for ELM

  volume/ion in A,a.u.               =      28.31       191.01
  Fermi-wavevector in a.u.,A,eV,Ry     =   0.860136  1.625421 10.066044  0.739833
  Thomas-Fermi vector in A             =   1.977595
 
 Write flags
   LWAVE        =      F    write WAVECAR
   LDOWNSAMPLE  =      F    k-point downsampling of WAVECAR
   LCHARG       =      T    write CHGCAR
   LVTOT        =      F    write LOCPOT, total local potential
   LVHAR        =      F    write LOCPOT, Hartree potential only
   LELF         =      F    write electronic localiz. function (ELF)
   LORBIT       =      0    0 simple, 1 ext, 2 COOP (PROOUT), +10 PAW based schemes


 Dipole corrections
   LMONO  =      F    monopole corrections only (constant potential shift)
   LDIPOL =      F    correct potential (dipole corrections)
   IDIPOL =      0    1-x, 2-y, 3-z, 4-all directions 
   EPSILON=  1.0000000 bulk dielectric constant

 Exchange correlation treatment:
   GGA     =    --    GGA type
   LEXCH   =     8    internal setting for exchange type
   VOSKOWN=      0    Vosko Wilk Nusair interpolation
   LHFCALC =     F    Hartree Fock is set to
   LHFONE  =     F    Hartree Fock one center treatment
   AEXX    =    0.0000 exact exchange contribution

 Linear response parameters
   LEPSILON=     F    determine dielectric tensor
   LRPA    =     F    only Hartree local field effects (RPA)
   LNABLA  =     F    use nabla operator in PAW spheres
   LVEL    =     F    velocity operator in full k-point grid
   LINTERFAST=   F  fast interpolation
   KINTER  =     0    interpolate to denser k-point grid
   CSHIFT  =0.1000    complex shift for real part using Kramers Kronig
   OMEGAMAX=  -1.0    maximum frequency
   DEG_THRESHOLD= 0.2000000E-02 threshold for treating states as degnerate
   RTIME   =   -0.100 relaxation time in fs
  (WPLASMAI=    0.000 imaginary part of plasma frequency in eV, 0.658/RTIME)
   DFIELD  = 0.0000000 0.0000000 0.0000000 field for delta impulse in time
 
 Orbital magnetization related:
   ORBITALMAG=     F  switch on orbital magnetization
   LCHIMAG   =     F  perturbation theory with respect to B field
   DQ        =  0.001000  dq finite difference perturbation B field
   LLRAUG    =     F  two centre corrections for induced B field



--------------------------------------------------------------------------------------------------------


 Static calculation
 charge density and potential will be updated during run
 non-spin polarized calculation
 Variant of blocked Davidson
 Davidson routine will perform the subspace rotation
 perform sub-space diagonalisation
    after iterative eigenvector-optimisation
 modified Broyden-mixing scheme, WC =      100.0
 initial mixing is a Kerker type mixing with AMIX =  0.4000 and BMIX =      1.0000
 Hartree-type preconditioning will be used
 using additional bands           11
 reciprocal scheme for non local part
 use partial core corrections
 calculate Harris-corrections to forces 
   (improved forces if not selfconsistent)
 use gradient corrections 
 use of overlap-Matrix (Vanderbilt PP)
 Gauss-broadening in eV      SIGMA  =   0.05


--------------------------------------------------------------------------------------------------------


  energy-cutoff  :      450.00
  volume of cell :      537.80
      direct lattice vectors                 reciprocal lattice vectors
     2.595974150 -1.522302603 -0.021631981     0.386753138  0.002606133  0.001563730
    -0.020365814  3.009330567  0.021631976     0.195633548  0.333635020 -0.001563730
    -0.282768370  0.489769182 69.120091079     0.000059813 -0.000103600  0.014468552

  length of vectors
     3.009477520  3.009477225 69.122404635     0.386765080  0.386765118  0.014469047


 
 k-points in units of 2pi/SCALE and weight: K-Spacing Value to Generate K-Mesh: 0.02
   0.00000000  0.00000000  0.00000000       0.006
   0.02975024  0.00020047  0.00012029       0.024
   0.05950048  0.00040094  0.00024057       0.024
   0.08925072  0.00060142  0.00036086       0.024
   0.11900097  0.00080189  0.00048115       0.024
   0.14875121  0.00100236  0.00060143       0.024
   0.17850145  0.00120283  0.00072172       0.024
   0.04479898  0.02586470 -0.00000000       0.012
   0.07454922  0.02606518  0.00012029       0.024
   0.10429946  0.02626565  0.00024057       0.024
   0.13404970  0.02646612  0.00036086       0.024
   0.16379994  0.02666659  0.00048115       0.024
   0.19355018  0.02686706  0.00060143       0.024
  -0.16345271  0.02446140 -0.00084201       0.024
  -0.13370247  0.02466187 -0.00072172       0.024
  -0.10395223  0.02486235 -0.00060143       0.024
  -0.07420199  0.02506282 -0.00048115       0.024
  -0.04445175  0.02526329 -0.00036086       0.024
  -0.01470151  0.02546376 -0.00024057       0.012
   0.08959795  0.05172941 -0.00000000       0.012
   0.11934819  0.05192988  0.00012029       0.024
   0.14909843  0.05213035  0.00024057       0.024
   0.17884868  0.05233082  0.00036086       0.024
   0.20859892  0.05253130  0.00048115       0.024
  -0.14840398  0.05012563 -0.00096230       0.024
  -0.11865374  0.05032611 -0.00084201       0.024
  -0.08890350  0.05052658 -0.00072172       0.024
  -0.05915326  0.05072705 -0.00060143       0.024
  -0.02940301  0.05092752 -0.00048115       0.012
   0.13439693  0.07759411 -0.00000000       0.012
   0.16414717  0.07779458  0.00012029       0.024
   0.19389741  0.07799506  0.00024057       0.024
   0.22364765  0.07819553  0.00036086       0.024
  -0.13335525  0.07578987 -0.00108258       0.024
  -0.10360500  0.07599034 -0.00096230       0.024
  -0.07385476  0.07619081 -0.00084201       0.024
  -0.04410452  0.07639128 -0.00072172       0.012
   0.17919590  0.10345882 -0.00000000       0.012
   0.20894614  0.10365929  0.00012029       0.024
   0.23869639  0.10385976  0.00024057       0.024
  -0.11830651  0.10145410 -0.00120287       0.024
  -0.08855627  0.10165457 -0.00108258       0.024
  -0.05880603  0.10185504 -0.00096230       0.012
   0.22399488  0.12932352 -0.00000000       0.012
   0.25374512  0.12952399  0.00012029       0.024
  -0.10325778  0.12711833 -0.00132316       0.024
  -0.07350753  0.12731880 -0.00120287       0.012
   0.26879386  0.15518822 -0.00000000       0.012
  -0.08820904  0.15278256 -0.00144344       0.012
 
 k-points in reciprocal lattice and weights: K-Spacing Value to Generate K-Mesh: 0.02
   0.00000000  0.00000000  0.00000000       0.006
   0.07692308 -0.00000000  0.00000000       0.024
   0.15384615 -0.00000000 -0.00000000       0.024
   0.23076923 -0.00000000 -0.00000000       0.024
   0.30769231 -0.00000000  0.00000000       0.024
   0.38461538 -0.00000000 -0.00000000       0.024
   0.46153846 -0.00000000 -0.00000000       0.024
   0.07692308  0.07692308 -0.00000000       0.012
   0.15384615  0.07692308 -0.00000000       0.024
   0.23076923  0.07692308 -0.00000000       0.024
   0.30769231  0.07692308  0.00000000       0.024
   0.38461538  0.07692308 -0.00000000       0.024
   0.46153846  0.07692308  0.00000000       0.024
  -0.46153846  0.07692308  0.00000000       0.024
  -0.38461538  0.07692308  0.00000000       0.024
  -0.30769231  0.07692308  0.00000000       0.024
  -0.23076923  0.07692308 -0.00000000       0.024
  -0.15384615  0.07692308  0.00000000       0.024
  -0.07692308  0.07692308 -0.00000000       0.012
   0.15384615  0.15384615 -0.00000000       0.012
   0.23076923  0.15384615 -0.00000000       0.024
   0.30769231  0.15384615 -0.00000000       0.024
   0.38461538  0.15384615 -0.00000000       0.024
   0.46153846  0.15384615 -0.00000000       0.024
  -0.46153846  0.15384615 -0.00000000       0.024
  -0.38461538  0.15384615 -0.00000000       0.024
  -0.30769231  0.15384615  0.00000000       0.024
  -0.23076923  0.15384615  0.00000000       0.024
  -0.15384615  0.15384615 -0.00000000       0.012
   0.23076923  0.23076923 -0.00000000       0.012
   0.30769231  0.23076923 -0.00000000       0.024
   0.38461538  0.23076923 -0.00000000       0.024
   0.46153846  0.23076923 -0.00000000       0.024
  -0.46153846  0.23076923  0.00000000       0.024
  -0.38461538  0.23076923  0.00000000       0.024
  -0.30769231  0.23076923 -0.00000000       0.024
  -0.23076923  0.23076923 -0.00000000       0.012
   0.30769231  0.30769231 -0.00000000       0.012
   0.38461538  0.30769231 -0.00000000       0.024
   0.46153846  0.30769231 -0.00000000       0.024
  -0.46153846  0.30769231 -0.00000000       0.024
  -0.38461538  0.30769231 -0.00000000       0.024
  -0.30769231  0.30769231 -0.00000000       0.012
   0.38461538  0.38461538  0.00000000       0.012
   0.46153846  0.38461538 -0.00000000       0.024
  -0.46153846  0.38461538 -0.00000000       0.024
  -0.38461538  0.38461538 -0.00000000       0.012
   0.46153846  0.46153846 -0.00000000       0.012
  -0.46153846  0.46153846 -0.00000000       0.012
 
 position of ions in fractional coordinates (direct lattice) 
   0.47847998  0.52152002  0.44755986
   0.51461326  0.48538674  0.55436117
   0.52726879  0.47273121  0.66128655
   0.54152038  0.45847962  0.76582002
   0.83651758  0.16348242  0.48309089
   0.17603842  0.82396158  0.51873182
   0.85248769  0.14751231  0.59000884
   0.18998984  0.81001016  0.62564537
   0.86464750  0.13535250  0.69688827
   0.20252516  0.79747484  0.73218680
   0.50540338  0.49459662  0.50204641
   0.51979344  0.48020656  0.60894489
   0.53177792  0.46822208  0.71591635
   0.16695451  0.83304549  0.46642340
   0.84416557  0.15583443  0.53766803
   0.18217540  0.81782460  0.57330418
   0.85708588  0.14291412  0.64458581
   0.19437884  0.80562116  0.68023563
   0.86891050  0.13108950  0.75222289
 
 position of ions in cartesian coordinates  (Angst):
   1.10494472  1.06023582 30.93630905
   1.16928161  0.94880108 38.31686253
   1.17215767  0.94381961 45.70700674
   1.17988591  0.93043391 52.93175350
   2.03164575 -0.54485724 33.37672695
   0.29352959  2.46564788 35.86880659
   2.04319596 -0.56486278 40.76621476
   0.29979947  2.45478814 43.25807737
   2.04478804 -0.56762034 48.15320487
   0.30246960  2.45016335 50.62168845
   1.15997839  0.96491472 34.70125958
   1.16740019  0.95205980 42.08946996
   1.16850751  0.95014187 49.48282843
   0.28455415  2.48119380 32.25363687
   2.03622278 -0.55278488 37.14877300
   0.29415467  2.46456521 39.64058749
   2.03979376 -0.55897000 44.53838067
   0.29584618  2.46163544 47.03117116
   2.04029460 -0.55983747 51.97775413
 


--------------------------------------------------------------------------------------------------------


 k-point  1 :   0.0000 0.0000 0.0000  plane waves:   11595
 k-point  2 :   0.0769-0.0000 0.0000  plane waves:   11559
 k-point  3 :   0.1538-0.0000-0.0000  plane waves:   11566
 k-point  4 :   0.2308-0.0000-0.0000  plane waves:   11647
 k-point  5 :   0.3077-0.0000 0.0000  plane waves:   11706
 k-point  6 :   0.3846-0.0000-0.0000  plane waves:   11748
 k-point  7 :   0.4615-0.0000-0.0000  plane waves:   11741
 k-point  8 :   0.0769 0.0769-0.0000  plane waves:   11545
 k-point  9 :   0.1538 0.0769-0.0000  plane waves:   11639
 k-point 10 :   0.2308 0.0769-0.0000  plane waves:   11684
 k-point 11 :   0.3077 0.0769 0.0000  plane waves:   11713
 k-point 12 :   0.3846 0.0769-0.0000  plane waves:   11713
 k-point 13 :   0.4615 0.0769 0.0000  plane waves:   11699
 k-point 14 :  -0.4615 0.0769 0.0000  plane waves:   11726
 k-point 15 :  -0.3846 0.0769 0.0000  plane waves:   11731
 k-point 16 :  -0.3077 0.0769 0.0000  plane waves:   11675
 k-point 17 :  -0.2308 0.0769-0.0000  plane waves:   11617
 k-point 18 :  -0.1538 0.0769 0.0000  plane waves:   11610
 k-point 19 :  -0.0769 0.0769-0.0000  plane waves:   11611
 k-point 20 :   0.1538 0.1538-0.0000  plane waves:   11635
 k-point 21 :   0.2308 0.1538-0.0000  plane waves:   11673
 k-point 22 :   0.3077 0.1538-0.0000  plane waves:   11697
 k-point 23 :   0.3846 0.1538-0.0000  plane waves:   11684
 k-point 24 :   0.4615 0.1538-0.0000  plane waves:   11689
 k-point 25 :  -0.4615 0.1538-0.0000  plane waves:   11686
 k-point 26 :  -0.3846 0.1538-0.0000  plane waves:   11660
 k-point 27 :  -0.3077 0.1538 0.0000  plane waves:   11623
 k-point 28 :  -0.2308 0.1538 0.0000  plane waves:   11590
 k-point 29 :  -0.1538 0.1538-0.0000  plane waves:   11594
 k-point 30 :   0.2308 0.2308-0.0000  plane waves:   11643
 k-point 31 :   0.3077 0.2308-0.0000  plane waves:   11660
 k-point 32 :   0.3846 0.2308-0.0000  plane waves:   11637
 k-point 33 :   0.4615 0.2308-0.0000  plane waves:   11641
 k-point 34 :  -0.4615 0.2308 0.0000  plane waves:   11648
 k-point 35 :  -0.3846 0.2308 0.0000  plane waves:   11618
 k-point 36 :  -0.3077 0.2308-0.0000  plane waves:   11626
 k-point 37 :  -0.2308 0.2308-0.0000  plane waves:   11609
 k-point 38 :   0.3077 0.3077-0.0000  plane waves:   11607
 k-point 39 :   0.3846 0.3077-0.0000  plane waves:   11612
 k-point 40 :   0.4615 0.3077-0.0000  plane waves:   11652
 k-point 41 :  -0.4615 0.3077-0.0000  plane waves:   11662
 k-point 42 :  -0.3846 0.3077-0.0000  plane waves:   11677
 k-point 43 :  -0.3077 0.3077-0.0000  plane waves:   11648
 k-point 44 :   0.3846 0.3846 0.0000  plane waves:   11667
 k-point 45 :   0.4615 0.3846-0.0000  plane waves:   11664
 k-point 46 :  -0.4615 0.3846-0.0000  plane waves:   11687
 k-point 47 :  -0.3846 0.3846-0.0000  plane waves:   11671
 k-point 48 :   0.4615 0.4615-0.0000  plane waves:   11696
 k-point 49 :  -0.4615 0.4615-0.0000  plane waves:   11676

 maximum and minimum number of plane-waves per node :      2958     2877

 maximum number of plane-waves:     11748
 maximum index in each direction: 
   IXMAX=    5   IYMAX=    5   IZMAX=  119
   IXMIN=   -5   IYMIN=   -5   IZMIN= -119


 parallel 3D FFT for wavefunctions:
    minimum data exchange during FFTs selected (reduces bandwidth)
 parallel 3D FFT for charge:
    minimum data exchange during FFTs selected (reduces bandwidth)


 total amount of memory used by VASP MPI-rank0   117931. kBytes
=======================================================================

   base      :      30000. kBytes
   nonl-proj :      31068. kBytes
   fftplans  :      21353. kBytes
   grid      :      11833. kBytes
   one-center:         40. kBytes
   wavefun   :      23637. kBytes
 
     INWAV:  cpu time    0.0000: real time    0.0001
 Broyden mixing: mesh for mixing (old mesh)
   NGX = 11   NGY = 11   NGZ =239
  (NGX  = 48   NGY  = 48   NGZ  =***)
  gives a total of  28919 points

 initial charge density was supplied:
 charge density of overlapping atoms calculated
 number of electron      78.0000000 magnetization 
 keeping initial charge density in first step


--------------------------------------------------------------------------------------------------------


 Maximum index for augmentation-charges        10331 (set IRDMAX)


--------------------------------------------------------------------------------------------------------


 First call to EWALD:  gamma=   0.218
 Maximum number of real-space cells 8x 8x 1
 Maximum number of reciprocal cells 1x 1x20

    FEWALD:  cpu time    0.0016: real time    0.0016


--------------------------------------- Iteration      1(   1)  ---------------------------------------


    POTLOK:  cpu time    0.0877: real time    0.0919
    SETDIJ:  cpu time    0.1432: real time    0.1481
     EDDAV:  cpu time   10.6719: real time   11.0782
       DOS:  cpu time    0.0016: real time    0.0022
    --------------------------------------------
      LOOP:  cpu time   10.9044: real time   11.3203

 eigenvalue-minimisations  :  5340
 total energy-change (2. order) : 0.6889281E+03  (-0.3055548E+04)
 number of electron      78.0000000 magnetization 
 augmentation part       78.0000000 magnetization 

 Free energy of the ion-electron system (eV)
  ---------------------------------------------------
  alpha Z        PSCENC =        62.96259514
  Ewald energy   TEWEN  =    170994.51065120
  -Hartree energ DENC   =   -174952.66287543
  -exchange      EXHF   =         0.00000000
  -V(xc)+E(xc)   XCENC  =      -158.61260010
  PAW double counting   =      4053.25502632    -3604.47710419
  entropy T*S    EENTRO =        -0.00780956
  eigenvalues    EBANDS =      -236.76976760
  atomic energy  EATOM  =      4530.72999957
  Solvation  Ediel_sol  =         0.00000000
  ---------------------------------------------------
  free energy    TOTEN  =       688.92811535 eV

  energy without entropy =      688.93592491  energy(sigma->0) =      688.93202013


--------------------------------------------------------------------------------------------------------




--------------------------------------- Iteration      1(   2)  ---------------------------------------


     EDDAV:  cpu time   12.0103: real time   12.5553
       DOS:  cpu time    0.0014: real time    0.0021
    --------------------------------------------
      LOOP:  cpu time   12.0116: real time   12.5574

 eigenvalue-minimisations  :  6950
 total energy-change (2. order) :-0.6947454E+03  (-0.6731151E+03)
 number of electron      78.0000000 magnetization 
 augmentation part       78.0000000 magnetization 

 Free energy of the ion-electron system (eV)
  ---------------------------------------------------
  alpha Z        PSCENC =        62.96259514
  Ewald energy   TEWEN  =    170994.51065120
  -Hartree energ DENC   =   -174952.66287543
  -exchange      EXHF   =         0.00000000
  -V(xc)+E(xc)   XCENC  =      -158.61260010
  PAW double counting   =      4053.25502632    -3604.47710419
  entropy T*S    EENTRO =        -0.00373452
  eigenvalues    EBANDS =      -931.51924194
  atomic energy  EATOM  =      4530.72999957
  Solvation  Ediel_sol  =         0.00000000
  ---------------------------------------------------
  free energy    TOTEN  =        -5.81728395 eV

  energy without entropy =       -5.81354943  energy(sigma->0) =       -5.81541669


--------------------------------------------------------------------------------------------------------




--------------------------------------- Iteration      1(   3)  ---------------------------------------


     EDDAV:  cpu time   10.6317: real time   11.6846
       DOS:  cpu time    0.0014: real time    0.0015
    --------------------------------------------
      LOOP:  cpu time   10.6331: real time   11.6861

 eigenvalue-minimisations  :  5820
 total energy-change (2. order) :-0.1134041E+03  (-0.1123212E+03)
 number of electron      78.0000000 magnetization 
 augmentation part       78.0000000 magnetization 

 Free energy of the ion-electron system (eV)
  ---------------------------------------------------
  alpha Z        PSCENC =        62.96259514
  Ewald energy   TEWEN  =    170994.51065120
  -Hartree energ DENC   =   -174952.66287543
  -exchange      EXHF   =         0.00000000
  -V(xc)+E(xc)   XCENC  =      -158.61260010
  PAW double counting   =      4053.25502632    -3604.47710419
  entropy T*S    EENTRO =        -0.00767400
  eigenvalues    EBANDS =     -1044.91944887
  atomic energy  EATOM  =      4530.72999957
  Solvation  Ediel_sol  =         0.00000000
  ---------------------------------------------------
  free energy    TOTEN  =      -119.22143036 eV

  energy without entropy =     -119.21375636  energy(sigma->0) =     -119.21759336


--------------------------------------------------------------------------------------------------------




--------------------------------------- Iteration      1(   4)  ---------------------------------------


     EDDAV:  cpu time   10.2036: real time   10.9962
       DOS:  cpu time    0.0013: real time    0.0017
    --------------------------------------------
      LOOP:  cpu time   10.2049: real time   10.9979

 eigenvalue-minimisations  :  5870
 total energy-change (2. order) :-0.2795480E+01  (-0.2787426E+01)
 number of electron      78.0000000 magnetization 
 augmentation part       78.0000000 magnetization 

 Free energy of the ion-electron system (eV)
  ---------------------------------------------------
  alpha Z        PSCENC =        62.96259514
  Ewald energy   TEWEN  =    170994.51065120
  -Hartree energ DENC   =   -174952.66287543
  -exchange      EXHF   =         0.00000000
  -V(xc)+E(xc)   XCENC  =      -158.61260010
  PAW double counting   =      4053.25502632    -3604.47710419
  entropy T*S    EENTRO =        -0.00863757
  eigenvalues    EBANDS =     -1047.71396507
  atomic energy  EATOM  =      4530.72999957
  Solvation  Ediel_sol  =         0.00000000
  ---------------------------------------------------
  free energy    TOTEN  =      -122.01691012 eV

  energy without entropy =     -122.00827256  energy(sigma->0) =     -122.01259134


--------------------------------------------------------------------------------------------------------




--------------------------------------- Iteration      1(   5)  ---------------------------------------


     EDDAV:  cpu time   10.9706: real time   11.3999
       DOS:  cpu time    0.0016: real time    0.0019
    CHARGE:  cpu time    0.6069: real time    0.6150
    MIXING:  cpu time    0.0050: real time    0.0051
    --------------------------------------------
      LOOP:  cpu time   11.5841: real time   12.0218

 eigenvalue-minimisations  :  6110
 total energy-change (2. order) :-0.6107946E-01  (-0.6106358E-01)
 number of electron      78.0000001 magnetization 
 augmentation part        7.7069370 magnetization 

 Broyden mixing:
  rms(total) = 0.23127E+01    rms(broyden)= 0.23114E+01
  rms(prec ) = 0.23841E+01
  weight for this iteration     100.00

 Free energy of the ion-electron system (eV)
  ---------------------------------------------------
  alpha Z        PSCENC =        62.96259514
  Ewald energy   TEWEN  =    170994.51065120
  -Hartree energ DENC   =   -174952.66287543
  -exchange      EXHF   =         0.00000000
  -V(xc)+E(xc)   XCENC  =      -158.61260010
  PAW double counting   =      4053.25502632    -3604.47710419
  entropy T*S    EENTRO =        -0.00865300
  eigenvalues    EBANDS =     -1047.77502910
  atomic energy  EATOM  =      4530.72999957
  Solvation  Ediel_sol  =         0.00000000
  ---------------------------------------------------
  free energy    TOTEN  =      -122.07798959 eV

  energy without entropy =     -122.06933659  energy(sigma->0) =     -122.07366309


--------------------------------------------------------------------------------------------------------




--------------------------------------- Iteration      1(   6)  ---------------------------------------


    POTLOK:  cpu time    0.0873: real time    0.0920
    SETDIJ:  cpu time    0.1374: real time    0.1384
     EDDAV:  cpu time   10.1570: real time   11.0738
       DOS:  cpu time    0.0015: real time    0.0015
    CHARGE:  cpu time    0.7986: real time    0.8187
    MIXING:  cpu time    0.0029: real time    0.0030
    --------------------------------------------
      LOOP:  cpu time   11.1848: real time   12.1275

 eigenvalue-minimisations  :  5870
 total energy-change (2. order) : 0.2507222E+01  (-0.2662514E+02)
 number of electron      78.0000001 magnetization 
 augmentation part        6.5501155 magnetization 

 Broyden mixing:
  rms(total) = 0.18270E+01    rms(broyden)= 0.18257E+01
  rms(prec ) = 0.19368E+01
  weight for this iteration     100.00

 eigenvalues of (default mixing * dielectric matrix)
  average eigenvalue GAMMA=   0.5842
  0.5842

 Free energy of the ion-electron system (eV)
  ---------------------------------------------------
  alpha Z        PSCENC =        62.96259514
  Ewald energy   TEWEN  =    170994.51065120
  -Hartree energ DENC   =   -175122.62762640
  -exchange      EXHF   =         0.00000000
  -V(xc)+E(xc)   XCENC  =      -146.82929629
  PAW double counting   =      4712.86546376    -4267.18471160
  entropy T*S    EENTRO =        -0.01236533
  eigenvalues    EBANDS =      -883.98547803
  atomic energy  EATOM  =      4530.72999957
  Solvation  Ediel_sol  =         0.00000000
  ---------------------------------------------------
  free energy    TOTEN  =      -119.57076798 eV

  energy without entropy =     -119.55840265  energy(sigma->0) =     -119.56458531


--------------------------------------------------------------------------------------------------------




--------------------------------------- Iteration      1(   7)  ---------------------------------------


    POTLOK:  cpu time    0.0723: real time    0.0780
    SETDIJ:  cpu time    0.1806: real time    0.1932
     EDDAV:  cpu time   10.7498: real time   11.5677
       DOS:  cpu time    0.0015: real time    0.0015
    CHARGE:  cpu time    0.6248: real time    0.6258
    MIXING:  cpu time    0.0035: real time    0.0035
    --------------------------------------------
      LOOP:  cpu time   11.6324: real time   12.4696

 eigenvalue-minimisations  :  5800
 total energy-change (2. order) : 0.1072239E+02  (-0.2597861E+01)
 number of electron      78.0000001 magnetization 
 augmentation part        6.4730663 magnetization 

 Broyden mixing:
  rms(total) = 0.11601E+01    rms(broyden)= 0.11595E+01
  rms(prec ) = 0.12819E+01
  weight for this iteration     100.00

 eigenvalues of (default mixing * dielectric matrix)
  average eigenvalue GAMMA=   0.5496
  0.5496  0.5496

 Free energy of the ion-electron system (eV)
  ---------------------------------------------------
  alpha Z        PSCENC =        62.96259514
  Ewald energy   TEWEN  =    170994.51065120
  -Hartree energ DENC   =   -175127.22042854
  -exchange      EXHF   =         0.00000000
  -V(xc)+E(xc)   XCENC  =      -146.28317241
  PAW double counting   =      4851.89974179    -4406.08029689
  entropy T*S    EENTRO =        -0.00894039
  eigenvalues    EBANDS =      -869.35852678
  atomic energy  EATOM  =      4530.72999957
  Solvation  Ediel_sol  =         0.00000000
  ---------------------------------------------------
  free energy    TOTEN  =      -108.84837730 eV

  energy without entropy =     -108.83943691  energy(sigma->0) =     -108.84390711


--------------------------------------------------------------------------------------------------------




--------------------------------------- Iteration      1(   8)  ---------------------------------------


    POTLOK:  cpu time    0.0903: real time    0.0905
    SETDIJ:  cpu time    0.1386: real time    0.1406
     EDDAV:  cpu time   12.7015: real time   13.4061
       DOS:  cpu time    0.0014: real time    0.0020
    CHARGE:  cpu time    0.6289: real time    0.6385
    MIXING:  cpu time    0.0051: real time    0.0051
    --------------------------------------------
      LOOP:  cpu time   13.5657: real time   14.2829

 eigenvalue-minimisations  :  7240
 total energy-change (2. order) :-0.6953892E+00  (-0.5970587E+01)
 number of electron      78.0000001 magnetization 
 augmentation part        6.4742113 magnetization 

 Broyden mixing:
  rms(total) = 0.10593E+01    rms(broyden)= 0.10584E+01
  rms(prec ) = 0.11778E+01
  weight for this iteration     100.00

 eigenvalues of (default mixing * dielectric matrix)
  average eigenvalue GAMMA=   0.5395
  0.8256  0.3965  0.3965

 Free energy of the ion-electron system (eV)
  ---------------------------------------------------
  alpha Z        PSCENC =        62.96259514
  Ewald energy   TEWEN  =    170994.51065120
  -Hartree energ DENC   =   -175118.71078780
  -exchange      EXHF   =         0.00000000
  -V(xc)+E(xc)   XCENC  =      -146.09816709
  PAW double counting   =      4920.90290534    -4474.98837404
  entropy T*S    EENTRO =        -0.00975550
  eigenvalues    EBANDS =      -878.84283329
  atomic energy  EATOM  =      4530.72999957
  Solvation  Ediel_sol  =         0.00000000
  ---------------------------------------------------
  free energy    TOTEN  =      -109.54376646 eV

  energy without entropy =     -109.53401096  energy(sigma->0) =     -109.53888871


--------------------------------------------------------------------------------------------------------




--------------------------------------- Iteration      1(   9)  ---------------------------------------


    POTLOK:  cpu time    0.0918: real time    0.0938
    SETDIJ:  cpu time    0.1390: real time    0.1425
     EDDAV:  cpu time   10.6793: real time   11.2547
       DOS:  cpu time    0.0014: real time    0.0014
    CHARGE:  cpu time    0.8586: real time    0.8891
    MIXING:  cpu time    0.0068: real time    0.0068
    --------------------------------------------
      LOOP:  cpu time   11.7769: real time   12.3882

 eigenvalue-minimisations  :  5900
 total energy-change (2. order) :-0.7574846E+00  (-0.4420520E+01)
 number of electron      78.0000001 magnetization 
 augmentation part        6.4972644 magnetization 

 Broyden mixing:
  rms(total) = 0.11278E+01    rms(broyden)= 0.11272E+01
  rms(prec ) = 0.12763E+01
  weight for this iteration     100.00

 eigenvalues of (default mixing * dielectric matrix)
  average eigenvalue GAMMA=   0.7505
  1.1945  1.1945  0.3065  0.3065

 Free energy of the ion-electron system (eV)
  ---------------------------------------------------
  alpha Z        PSCENC =        62.96259514
  Ewald energy   TEWEN  =    170994.51065120
  -Hartree energ DENC   =   -175123.29854967
  -exchange      EXHF   =         0.00000000
  -V(xc)+E(xc)   XCENC  =      -145.84479643
  PAW double counting   =      5013.56371694    -4567.55303815
  entropy T*S    EENTRO =        -0.01431185
  eigenvalues    EBANDS =      -875.35751777
  atomic energy  EATOM  =      4530.72999957
  Solvation  Ediel_sol  =         0.00000000
  ---------------------------------------------------
  free energy    TOTEN  =      -110.30125101 eV

  energy without entropy =     -110.28693916  energy(sigma->0) =     -110.29409509


--------------------------------------------------------------------------------------------------------




--------------------------------------- Iteration      1(  10)  ---------------------------------------


    POTLOK:  cpu time    0.1100: real time    0.1111
    SETDIJ:  cpu time    0.1313: real time    0.1378
     EDDAV:  cpu time   12.2738: real time   12.4586
       DOS:  cpu time    0.0016: real time    0.0016
    CHARGE:  cpu time    0.6033: real time    0.6297
    MIXING:  cpu time    0.0086: real time    0.0086
    --------------------------------------------
      LOOP:  cpu time   13.1286: real time   13.3472

 eigenvalue-minimisations  :  7050
 total energy-change (2. order) : 0.3054121E+00  (-0.4409182E+01)
 number of electron      78.0000001 magnetization 
 augmentation part        6.4987828 magnetization 

 Broyden mixing:
  rms(total) = 0.92693E+00    rms(broyden)= 0.92616E+00
  rms(prec ) = 0.10602E+01
  weight for this iteration     100.00

 eigenvalues of (default mixing * dielectric matrix)
  average eigenvalue GAMMA=   0.8974
  2.3676  0.9518  0.5768  0.2953  0.2953

 Free energy of the ion-electron system (eV)
  ---------------------------------------------------
  alpha Z        PSCENC =        62.96259514
  Ewald energy   TEWEN  =    170994.51065120
  -Hartree energ DENC   =   -175120.94549646
  -exchange      EXHF   =         0.00000000
  -V(xc)+E(xc)   XCENC  =      -145.61920202
  PAW double counting   =      5102.06876039    -4655.96360636
  entropy T*S    EENTRO =        -0.01066824
  eigenvalues    EBANDS =      -877.72887213
  atomic energy  EATOM  =      4530.72999957
  Solvation  Ediel_sol  =         0.00000000
  ---------------------------------------------------
  free energy    TOTEN  =      -109.99583891 eV

  energy without entropy =     -109.98517067  energy(sigma->0) =     -109.99050479


--------------------------------------------------------------------------------------------------------




--------------------------------------- Iteration      1(  11)  ---------------------------------------


    POTLOK:  cpu time    0.0836: real time    0.0839
    SETDIJ:  cpu time    0.1256: real time    0.1258
     EDDAV:  cpu time   11.4117: real time   11.9584
       DOS:  cpu time    0.0015: real time    0.0015
    CHARGE:  cpu time    0.6097: real time    0.6410
    MIXING:  cpu time    0.0057: real time    0.0057
    --------------------------------------------
      LOOP:  cpu time   12.2379: real time   12.8164

 eigenvalue-minimisations  :  6370
 total energy-change (2. order) : 0.3112981E+00  (-0.1061181E+00)
 number of electron      78.0000001 magnetization 
 augmentation part        6.4972630 magnetization 

 Broyden mixing:
  rms(total) = 0.84289E+00    rms(broyden)= 0.84286E+00
  rms(prec ) = 0.98640E+00
  weight for this iteration     100.00

 eigenvalues of (default mixing * dielectric matrix)
  average eigenvalue GAMMA=   0.9110
  2.3369  1.0298  0.7642  0.7642  0.2856  0.2856

 Free energy of the ion-electron system (eV)
  ---------------------------------------------------
  alpha Z        PSCENC =        62.96259514
  Ewald energy   TEWEN  =    170994.51065120
  -Hartree energ DENC   =   -175130.40571088
  -exchange      EXHF   =         0.00000000
  -V(xc)+E(xc)   XCENC  =      -144.70895829
  PAW double counting   =      5296.63725563    -4850.42552838
  entropy T*S    EENTRO =        -0.01535471
  eigenvalues    EBANDS =      -868.96949005
  atomic energy  EATOM  =      4530.72999957
  Solvation  Ediel_sol  =         0.00000000
  ---------------------------------------------------
  free energy    TOTEN  =      -109.68454078 eV

  energy without entropy =     -109.66918607  energy(sigma->0) =     -109.67686342


--------------------------------------------------------------------------------------------------------




--------------------------------------- Iteration      1(  12)  ---------------------------------------


    POTLOK:  cpu time    0.0859: real time    0.0869
    SETDIJ:  cpu time    0.1214: real time    0.1311
     EDDAV:  cpu time   10.7726: real time   11.2130
       DOS:  cpu time    0.0070: real time    0.0085
    CHARGE:  cpu time    0.8938: real time    0.9499
    MIXING:  cpu time    0.0056: real time    0.0059
    --------------------------------------------
      LOOP:  cpu time   11.8863: real time   12.3953

 eigenvalue-minimisations  :  5890
 total energy-change (2. order) : 0.1081712E+01  (-0.2963031E-01)
 number of electron      78.0000001 magnetization 
 augmentation part        6.4956496 magnetization 

 Broyden mixing:
  rms(total) = 0.75982E+00    rms(broyden)= 0.75978E+00
  rms(prec ) = 0.90966E+00
  weight for this iteration     100.00

 eigenvalues of (default mixing * dielectric matrix)
  average eigenvalue GAMMA=   0.8010
  2.3364  1.0329  0.7496  0.7496  0.2857  0.2857  0.1670

 Free energy of the ion-electron system (eV)
  ---------------------------------------------------
  alpha Z        PSCENC =        62.96259514
  Ewald energy   TEWEN  =    170994.51065120
  -Hartree energ DENC   =   -175132.86466755
  -exchange      EXHF   =         0.00000000
  -V(xc)+E(xc)   XCENC  =      -144.67325924
  PAW double counting   =      5292.44681435    -4846.25260675
  entropy T*S    EENTRO =        -0.02029913
  eigenvalues    EBANDS =      -865.44205610
  atomic energy  EATOM  =      4530.72999957
  Solvation  Ediel_sol  =         0.00000000
  ---------------------------------------------------
  free energy    TOTEN  =      -108.60282849 eV

  energy without entropy =     -108.58252936  energy(sigma->0) =     -108.59267893


--------------------------------------------------------------------------------------------------------




--------------------------------------- Iteration      1(  13)  ---------------------------------------


    POTLOK:  cpu time    0.0890: real time    0.1092
    SETDIJ:  cpu time    0.1109: real time    0.1441
     EDDAV:  cpu time   10.4815: real time   11.2733
       DOS:  cpu time    0.0015: real time    0.0015
    CHARGE:  cpu time    0.6258: real time    0.6266
    MIXING:  cpu time    0.0063: real time    0.0063
    --------------------------------------------
      LOOP:  cpu time   11.3150: real time   12.1610

 eigenvalue-minimisations  :  5790
 total energy-change (2. order) : 0.3752528E-01  (-0.6197681E-02)
 number of electron      78.0000001 magnetization 
 augmentation part        6.4924432 magnetization 

 Broyden mixing:
  rms(total) = 0.76517E+00    rms(broyden)= 0.76517E+00
  rms(prec ) = 0.91495E+00
  weight for this iteration     100.00

 eigenvalues of (default mixing * dielectric matrix)
  average eigenvalue GAMMA=   0.8262
  2.3064  1.0781  0.9351  0.9351  0.4848  0.2882  0.2882  0.2941

 Free energy of the ion-electron system (eV)
  ---------------------------------------------------
  alpha Z        PSCENC =        62.96259514
  Ewald energy   TEWEN  =    170994.51065120
  -Hartree energ DENC   =   -175132.78408065
  -exchange      EXHF   =         0.00000000
  -V(xc)+E(xc)   XCENC  =      -144.67579882
  PAW double counting   =      5291.87449443    -4845.67886607
  entropy T*S    EENTRO =        -0.01969675
  eigenvalues    EBANDS =      -865.48460126
  atomic energy  EATOM  =      4530.72999957
  Solvation  Ediel_sol  =         0.00000000
  ---------------------------------------------------
  free energy    TOTEN  =      -108.56530321 eV

  energy without entropy =     -108.54560646  energy(sigma->0) =     -108.55545484


--------------------------------------------------------------------------------------------------------




--------------------------------------- Iteration      1(  14)  ---------------------------------------


    POTLOK:  cpu time    0.0914: real time    0.0923
    SETDIJ:  cpu time    0.1276: real time    0.1318
     EDDAV:  cpu time   11.6489: real time   12.0206
       DOS:  cpu time    0.0015: real time    0.0015
    CHARGE:  cpu time    0.6028: real time    0.6189
    MIXING:  cpu time    0.0038: real time    0.0042
    --------------------------------------------
      LOOP:  cpu time   12.4760: real time   12.8692

 eigenvalue-minimisations  :  6380
 total energy-change (2. order) : 0.3195001E+00  (-0.1172794E-02)
 number of electron      78.0000001 magnetization 
 augmentation part        6.4943745 magnetization 

 Broyden mixing:
  rms(total) = 0.72217E+00    rms(broyden)= 0.72215E+00
  rms(prec ) = 0.85321E+00
  weight for this iteration     100.00

 eigenvalues of (default mixing * dielectric matrix)
  average eigenvalue GAMMA=   0.8205
  2.3072  1.2279  0.9543  0.9543  0.5202  0.5202  0.2878  0.2878  0.3247

 Free energy of the ion-electron system (eV)
  ---------------------------------------------------
  alpha Z        PSCENC =        62.96259514
  Ewald energy   TEWEN  =    170994.51065120
  -Hartree energ DENC   =   -175132.94888614
  -exchange      EXHF   =         0.00000000
  -V(xc)+E(xc)   XCENC  =      -144.68987473
  PAW double counting   =      5289.10996006    -4842.90669315
  entropy T*S    EENTRO =        -0.02033264
  eigenvalues    EBANDS =      -864.99322238
  atomic energy  EATOM  =      4530.72999957
  Solvation  Ediel_sol  =         0.00000000
  ---------------------------------------------------
  free energy    TOTEN  =      -108.24580306 eV

  energy without entropy =     -108.22547042  energy(sigma->0) =     -108.23563674


--------------------------------------------------------------------------------------------------------




--------------------------------------- Iteration      1(  15)  ---------------------------------------


    POTLOK:  cpu time    0.0806: real time    0.0870
    SETDIJ:  cpu time    0.1354: real time    0.1438
     EDDAV:  cpu time   12.3619: real time   12.8324
       DOS:  cpu time    0.0014: real time    0.0015
    CHARGE:  cpu time    0.6177: real time    0.6628
    MIXING:  cpu time    0.0082: real time    0.0082
    --------------------------------------------
      LOOP:  cpu time   13.2053: real time   13.7357

 eigenvalue-minimisations  :  7110
 total energy-change (2. order) : 0.1027795E+00  (-0.4365621E+00)
 number of electron      78.0000001 magnetization 
 augmentation part        6.4940694 magnetization 

 Broyden mixing:
  rms(total) = 0.54278E+00    rms(broyden)= 0.54102E+00
  rms(prec ) = 0.63741E+00
  weight for this iteration     100.00

 eigenvalues of (default mixing * dielectric matrix)
  average eigenvalue GAMMA=   0.7502
  2.4144  1.0771  0.8370  0.8370  0.6593  0.6593  0.2877  0.2877  0.3093  0.1335

 Free energy of the ion-electron system (eV)
  ---------------------------------------------------
  alpha Z        PSCENC =        62.96259514
  Ewald energy   TEWEN  =    170994.51065120
  -Hartree energ DENC   =   -175133.91903071
  -exchange      EXHF   =         0.00000000
  -V(xc)+E(xc)   XCENC  =      -144.63609832
  PAW double counting   =      5288.64345310    -4842.45010953
  entropy T*S    EENTRO =        -0.01663610
  eigenvalues    EBANDS =      -863.96784788
  atomic energy  EATOM  =      4530.72999957
  Solvation  Ediel_sol  =         0.00000000
  ---------------------------------------------------
  free energy    TOTEN  =      -108.14302352 eV

  energy without entropy =     -108.12638742  energy(sigma->0) =     -108.13470547


--------------------------------------------------------------------------------------------------------




--------------------------------------- Iteration      1(  16)  ---------------------------------------


    POTLOK:  cpu time    0.0932: real time    0.0963
    SETDIJ:  cpu time    0.1177: real time    0.1277
     EDDAV:  cpu time   11.1526: real time   11.8315
       DOS:  cpu time    0.0018: real time    0.0018
    CHARGE:  cpu time    0.6330: real time    0.6361
    MIXING:  cpu time    0.0054: real time    0.0054
    --------------------------------------------
      LOOP:  cpu time   12.0038: real time   12.6987

 eigenvalue-minimisations  :  5860
 total energy-change (2. order) : 0.1333366E+00  (-0.2741648E-01)
 number of electron      78.0000001 magnetization 
 augmentation part        6.4863972 magnetization 

 Broyden mixing:
  rms(total) = 0.26338E+00    rms(broyden)= 0.26294E+00
  rms(prec ) = 0.28535E+00
  weight for this iteration     100.00

 eigenvalues of (default mixing * dielectric matrix)
  average eigenvalue GAMMA=   0.7086
  2.4269  1.0375  0.8010  0.8010  0.7591  0.7591  0.2875  0.2875  0.3011  0.1674
  0.1661

 Free energy of the ion-electron system (eV)
  ---------------------------------------------------
  alpha Z        PSCENC =        62.96259514
  Ewald energy   TEWEN  =    170994.51065120
  -Hartree energ DENC   =   -175133.83954981
  -exchange      EXHF   =         0.00000000
  -V(xc)+E(xc)   XCENC  =      -144.59345885
  PAW double counting   =      5293.10174590    -4846.91107491
  entropy T*S    EENTRO =        -0.01535816
  eigenvalues    EBANDS =      -863.95523704
  atomic energy  EATOM  =      4530.72999957
  Solvation  Ediel_sol  =         0.00000000
  ---------------------------------------------------
  free energy    TOTEN  =      -108.00968695 eV

  energy without entropy =     -107.99432880  energy(sigma->0) =     -108.00200788


--------------------------------------------------------------------------------------------------------




--------------------------------------- Iteration      1(  17)  ---------------------------------------


    POTLOK:  cpu time    0.0917: real time    0.0990
    SETDIJ:  cpu time    0.1406: real time    0.1409
     EDDAV:  cpu time   10.7775: real time   11.4165
       DOS:  cpu time    0.0016: real time    0.0026
    CHARGE:  cpu time    0.6318: real time    0.6400
    MIXING:  cpu time    0.0067: real time    0.0067
    --------------------------------------------
      LOOP:  cpu time   11.6500: real time   12.3057

 eigenvalue-minimisations  :  5680
 total energy-change (2. order) :-0.1623876E-01  (-0.3784364E-03)
 number of electron      78.0000001 magnetization 
 augmentation part        6.4873516 magnetization 

 Broyden mixing:
  rms(total) = 0.29942E+00    rms(broyden)= 0.29941E+00
  rms(prec ) = 0.33761E+00
  weight for this iteration     100.00

 eigenvalues of (default mixing * dielectric matrix)
  average eigenvalue GAMMA=   0.7418
  2.4366  0.9690  0.9690  0.4858  1.0334  0.7796  0.7796  0.3243  0.2971  0.2971
  0.2650  0.2650

 Free energy of the ion-electron system (eV)
  ---------------------------------------------------
  alpha Z        PSCENC =        62.96259514
  Ewald energy   TEWEN  =    170994.51065120
  -Hartree energ DENC   =   -175133.91570489
  -exchange      EXHF   =         0.00000000
  -V(xc)+E(xc)   XCENC  =      -144.59570088
  PAW double counting   =      5293.24464883    -4847.05388293
  entropy T*S    EENTRO =        -0.01623555
  eigenvalues    EBANDS =      -863.89229620
  atomic energy  EATOM  =      4530.72999957
  Solvation  Ediel_sol  =         0.00000000
  ---------------------------------------------------
  free energy    TOTEN  =      -108.02592571 eV

  energy without entropy =     -108.00969016  energy(sigma->0) =     -108.01780794


--------------------------------------------------------------------------------------------------------




--------------------------------------- Iteration      1(  18)  ---------------------------------------


    POTLOK:  cpu time    0.1220: real time    0.1249
    SETDIJ:  cpu time    0.1871: real time    0.1982
     EDDAV:  cpu time   11.2298: real time   11.9779
       DOS:  cpu time    0.0014: real time    0.0014
    CHARGE:  cpu time    0.5994: real time    0.6000
    MIXING:  cpu time    0.0062: real time    0.0062
    --------------------------------------------
      LOOP:  cpu time   12.1458: real time   12.9086

 eigenvalue-minimisations  :  7130
 total energy-change (2. order) :-0.7192478E-01  (-0.1035162E-01)
 number of electron      78.0000001 magnetization 
 augmentation part        6.4924655 magnetization 

 Broyden mixing:
  rms(total) = 0.47855E+00    rms(broyden)= 0.47838E+00
  rms(prec ) = 0.57099E+00
  weight for this iteration     100.00

 eigenvalues of (default mixing * dielectric matrix)
  average eigenvalue GAMMA=   0.7927
  2.4915  1.2699  1.2699  0.7447  0.9353  0.6765  0.6765  0.5465  0.5465  0.2848
  0.2848  0.2890  0.2890

 Free energy of the ion-electron system (eV)
  ---------------------------------------------------
  alpha Z        PSCENC =        62.96259514
  Ewald energy   TEWEN  =    170994.51065120
  -Hartree energ DENC   =   -175134.14563460
  -exchange      EXHF   =         0.00000000
  -V(xc)+E(xc)   XCENC  =      -144.60153457
  PAW double counting   =      5291.81823593    -4845.62797326
  entropy T*S    EENTRO =        -0.01661798
  eigenvalues    EBANDS =      -863.72757192
  atomic energy  EATOM  =      4530.72999957
  Solvation  Ediel_sol  =         0.00000000
  ---------------------------------------------------
  free energy    TOTEN  =      -108.09785049 eV

  energy without entropy =     -108.08123251  energy(sigma->0) =     -108.08954150


--------------------------------------------------------------------------------------------------------




--------------------------------------- Iteration      1(  19)  ---------------------------------------


    POTLOK:  cpu time    0.0925: real time    0.0927
    SETDIJ:  cpu time    0.1234: real time    0.1241
     EDDAV:  cpu time   12.8986: real time   13.0701
       DOS:  cpu time    0.0013: real time    0.0013
    CHARGE:  cpu time    0.6352: real time    0.6687
    MIXING:  cpu time    0.0051: real time    0.0051
    --------------------------------------------
      LOOP:  cpu time   13.7562: real time   13.9621

 eigenvalue-minimisations  :  6240
 total energy-change (2. order) :-0.5336069E-01  (-0.2028350E-02)
 number of electron      78.0000001 magnetization 
 augmentation part        6.4931216 magnetization 

 Broyden mixing:
  rms(total) = 0.51386E+00    rms(broyden)= 0.51383E+00
  rms(prec ) = 0.62432E+00
  weight for this iteration     100.00

 eigenvalues of (default mixing * dielectric matrix)
  average eigenvalue GAMMA=   0.7646
  2.4978  1.3287  1.3287  0.8022  0.9056  0.6518  0.6518  0.5717  0.5717  0.2865
  0.2865  0.3153  0.2532  0.2532

 Free energy of the ion-electron system (eV)
  ---------------------------------------------------
  alpha Z        PSCENC =        62.96259514
  Ewald energy   TEWEN  =    170994.51065120
  -Hartree energ DENC   =   -175134.72183830
  -exchange      EXHF   =         0.00000000
  -V(xc)+E(xc)   XCENC  =      -144.59952786
  PAW double counting   =      5290.01489215    -4843.82542119
  entropy T*S    EENTRO =        -0.01591066
  eigenvalues    EBANDS =      -863.20665124
  atomic energy  EATOM  =      4530.72999957
  Solvation  Ediel_sol  =         0.00000000
  ---------------------------------------------------
  free energy    TOTEN  =      -108.15121119 eV

  energy without entropy =     -108.13530052  energy(sigma->0) =     -108.14325586


--------------------------------------------------------------------------------------------------------




--------------------------------------- Iteration      1(  20)  ---------------------------------------


    POTLOK:  cpu time    0.1225: real time    0.1227
    SETDIJ:  cpu time    0.1813: real time    0.1838
     EDDAV:  cpu time   12.8230: real time   13.5405
       DOS:  cpu time    0.0014: real time    0.0014
    CHARGE:  cpu time    0.6169: real time    0.6178
    MIXING:  cpu time    0.0088: real time    0.0088
    --------------------------------------------
      LOOP:  cpu time   13.7539: real time   14.4751

 eigenvalue-minimisations  :  5870
 total energy-change (2. order) :-0.1420841E-01  (-0.6271298E-03)
 number of electron      78.0000001 magnetization 
 augmentation part        6.4945036 magnetization 

 Broyden mixing:
  rms(total) = 0.53641E+00    rms(broyden)= 0.53641E+00
  rms(prec ) = 0.65204E+00
  weight for this iteration     100.00

 eigenvalues of (default mixing * dielectric matrix)
  average eigenvalue GAMMA=   0.7448
  2.4984  1.3360  1.3360  0.7883  0.8722  0.7233  0.7233  0.6336  0.6336  0.2854
  0.2854  0.3068  0.2826  0.2826  0.1851

 Free energy of the ion-electron system (eV)
  ---------------------------------------------------
  alpha Z        PSCENC =        62.96259514
  Ewald energy   TEWEN  =    170994.51065120
  -Hartree energ DENC   =   -175134.78686246
  -exchange      EXHF   =         0.00000000
  -V(xc)+E(xc)   XCENC  =      -144.59887640
  PAW double counting   =      5289.96300157    -4843.77349359
  entropy T*S    EENTRO =        -0.01613441
  eigenvalues    EBANDS =      -863.15630023
  atomic energy  EATOM  =      4530.72999957
  Solvation  Ediel_sol  =         0.00000000
  ---------------------------------------------------
  free energy    TOTEN  =      -108.16541959 eV

  energy without entropy =     -108.14928519  energy(sigma->0) =     -108.15735239


--------------------------------------------------------------------------------------------------------




--------------------------------------- Iteration      1(  21)  ---------------------------------------


    POTLOK:  cpu time    0.0982: real time    0.0985
    SETDIJ:  cpu time    0.1489: real time    0.1509
     EDDAV:  cpu time   10.5411: real time   11.1411
       DOS:  cpu time    0.0014: real time    0.0019
    CHARGE:  cpu time    0.4697: real time    0.4702
    MIXING:  cpu time    0.0038: real time    0.0038
    --------------------------------------------
      LOOP:  cpu time   11.2630: real time   11.8664

 eigenvalue-minimisations  :  6890
 total energy-change (2. order) :-0.5793128E-01  (-0.7966731E-03)
 number of electron      78.0000001 magnetization 
 augmentation part        6.4968169 magnetization 

 Broyden mixing:
  rms(total) = 0.62238E+00    rms(broyden)= 0.62235E+00
  rms(prec ) = 0.75793E+00
  weight for this iteration     100.00

 eigenvalues of (default mixing * dielectric matrix)
  average eigenvalue GAMMA=   0.7581
  2.5061  1.2968  1.2968  0.7252  0.7252  0.9234  0.6689  0.6689  0.6344  0.6344
  0.5102  0.2843  0.2843  0.3310  0.3201  0.3201

 Free energy of the ion-electron system (eV)
  ---------------------------------------------------
  alpha Z        PSCENC =        62.96259514
  Ewald energy   TEWEN  =    170994.51065120
  -Hartree energ DENC   =   -175135.05695661
  -exchange      EXHF   =         0.00000000
  -V(xc)+E(xc)   XCENC  =      -144.59954686
  PAW double counting   =      5288.49148744    -4842.30103150
  entropy T*S    EENTRO =        -0.01686606
  eigenvalues    EBANDS =      -862.94368319
  atomic energy  EATOM  =      4530.72999957
  Solvation  Ediel_sol  =         0.00000000
  ---------------------------------------------------
  free energy    TOTEN  =      -108.22335087 eV

  energy without entropy =     -108.20648481  energy(sigma->0) =     -108.21491784


--------------------------------------------------------------------------------------------------------




--------------------------------------- Iteration      1(  22)  ---------------------------------------


    POTLOK:  cpu time    0.0674: real time    0.0711
    SETDIJ:  cpu time    0.0942: real time    0.0949
     EDDAV:  cpu time    8.3934: real time    8.6330
       DOS:  cpu time    0.0063: real time    0.0074
    CHARGE:  cpu time    0.5966: real time    0.6062
    MIXING:  cpu time    0.0165: real time    0.0165
    --------------------------------------------
      LOOP:  cpu time    9.1744: real time    9.4290

 eigenvalue-minimisations  :  5900
 total energy-change (2. order) : 0.1664082E+00  (-0.2632255E-01)
 number of electron      78.0000001 magnetization 
 augmentation part        6.4921170 magnetization 

 Broyden mixing:
  rms(total) = 0.32609E+00    rms(broyden)= 0.32548E+00
  rms(prec ) = 0.39034E+00
  weight for this iteration     100.00

 eigenvalues of (default mixing * dielectric matrix)
  average eigenvalue GAMMA=   0.8060
  2.4863  1.0444  1.0444  1.2304  1.2304  1.0186  1.0186  0.9624  0.5973  0.5973
  0.4733  0.4733  0.2845  0.2845  0.3523  0.3022  0.3022

 Free energy of the ion-electron system (eV)
  ---------------------------------------------------
  alpha Z        PSCENC =        62.96259514
  Ewald energy   TEWEN  =    170994.51065120
  -Hartree energ DENC   =   -175134.48304469
  -exchange      EXHF   =         0.00000000
  -V(xc)+E(xc)   XCENC  =      -144.60293090
  PAW double counting   =      5288.46602622    -4842.26575677
  entropy T*S    EENTRO =        -0.01396299
  eigenvalues    EBANDS =      -863.36051947
  atomic energy  EATOM  =      4530.72999957
  Solvation  Ediel_sol  =         0.00000000
  ---------------------------------------------------
  free energy    TOTEN  =      -108.05694268 eV

  energy without entropy =     -108.04297969  energy(sigma->0) =     -108.04996119


--------------------------------------------------------------------------------------------------------




--------------------------------------- Iteration      1(  23)  ---------------------------------------


    POTLOK:  cpu time    0.0639: real time    0.0702
    SETDIJ:  cpu time    0.0909: real time    0.0953
     EDDAV:  cpu time    7.6189: real time    7.9474
       DOS:  cpu time    0.0016: real time    0.0016
    CHARGE:  cpu time    0.4572: real time    0.4994
    MIXING:  cpu time    0.0055: real time    0.0055
    --------------------------------------------
      LOOP:  cpu time    8.2379: real time    8.6195

 eigenvalue-minimisations  :  5880
 total energy-change (2. order) : 0.1774640E-01  (-0.5331724E-02)
 number of electron      78.0000001 magnetization 
 augmentation part        6.4949708 magnetization 

 Broyden mixing:
  rms(total) = 0.35103E+00    rms(broyden)= 0.35102E+00
  rms(prec ) = 0.41748E+00
  weight for this iteration     100.00

 eigenvalues of (default mixing * dielectric matrix)
  average eigenvalue GAMMA=   0.8217
  2.4703  1.1927  1.1927  1.3048  1.3048  0.9575  0.9575  1.0029  0.7367  0.7367
  0.5159  0.5159  0.2845  0.2845  0.3808  0.3311  0.3105  0.3105

 Free energy of the ion-electron system (eV)
  ---------------------------------------------------
  alpha Z        PSCENC =        62.96259514
  Ewald energy   TEWEN  =    170994.51065120
  -Hartree energ DENC   =   -175133.60870491
  -exchange      EXHF   =         0.00000000
[...]
     44       4.2041      0.00000
     45       4.4880      0.00000
     46       4.6313      0.00000
     47       4.9196      0.00000
     48       5.0700      0.00000
     49       5.3280      0.00000
     50       5.5529      0.00000

 k-point    45 :       0.4615    0.3846   -0.0000
  band No.  band energies     occupation 
      1     -21.7327      2.00000
      2     -21.6928      2.00000
      3     -21.6444      2.00000
      4     -21.5941      2.00000
      5     -21.5489      2.00000
      6     -21.5209      2.00000
      7     -21.4395      2.00000
      8     -21.3497      2.00000
      9     -20.6143      2.00000
     10     -20.4945      2.00000
     11     -10.0306      2.00000
     12      -9.8506      2.00000
     13      -9.6160      2.00000
     14      -9.5661      2.00000
     15      -9.4414      2.00000
     16      -9.4005      2.00000
     17      -9.2788      2.00000
     18      -9.1542      2.00000
     19      -8.1554      2.00000
     20      -8.0403      2.00000
     21      -7.8703      2.00000
     22      -7.7096      2.00000
     23      -7.6879      2.00000
     24      -7.5643      2.00000
     25      -7.5122      2.00000
     26      -7.4142      2.00000
     27      -7.2509      2.00000
     28      -7.1982      2.00000
     29      -7.1186      2.00000
     30      -7.0393      2.00000
     31      -6.9885      2.00000
     32      -6.8042      2.00000
     33      -6.6692      2.00000
     34      -6.6304      2.00000
     35      -6.5683      2.00000
     36      -6.5111      2.00000
     37      -5.8537      2.00000
     38      -5.7033      2.00000
     39      -5.4192      1.92359
     40      -5.4068      1.84499
     41       2.8145      0.00000
     42       3.1919      0.00000
     43       3.6877      0.00000
     44       3.8467      0.00000
     45       4.1849      0.00000
     46       4.2636      0.00000
     47       4.6088      0.00000
     48       4.7434      0.00000
     49       4.8032      0.00000
     50       4.9951      0.00000

 k-point    46 :      -0.4615    0.3846   -0.0000
  band No.  band energies     occupation 
      1     -21.8600      2.00000
      2     -21.8050      2.00000
      3     -21.7369      2.00000
      4     -21.6642      2.00000
      5     -21.5957      2.00000
      6     -21.5428      2.00000
      7     -21.4785      2.00000
      8     -21.4023      2.00000
      9     -20.6561      2.00000
     10     -20.5405      2.00000
     11     -10.0940      2.00000
     12      -9.9108      2.00000
     13      -9.6698      2.00000
     14      -9.6617      2.00000
     15      -9.5054      2.00000
     16      -9.4381      2.00000
     17      -9.3252      2.00000
     18      -9.1957      2.00000
     19      -8.2703      2.00000
     20      -8.1055      2.00000
     21      -7.8656      2.00000
     22      -7.5549      2.00000
     23      -7.2909      2.00000
     24      -7.2421      2.00000
     25      -7.1641      2.00000
     26      -7.0776      2.00000
     27      -7.0481      2.00000
     28      -6.9428      2.00000
     29      -6.8235      2.00000
     30      -6.7988      2.00000
     31      -6.6621      2.00000
     32      -6.6538      2.00000
     33      -6.5459      2.00000
     34      -6.5197      2.00000
     35      -6.4638      2.00000
     36      -6.4306      2.00000
     37      -5.5851      2.00000
     38      -5.4450      1.98766
     39      -5.4407      1.98271
     40      -5.4101      1.87002
     41       2.2404      0.00000
     42       2.6551      0.00000
     43       3.1757      0.00000
     44       3.6551      0.00000
     45       3.6975      0.00000
     46       3.9726      0.00000
     47       4.0902      0.00000
     48       4.2095      0.00000
     49       4.3496      0.00000
     50       4.5176      0.00000

 k-point    47 :      -0.3846    0.3846   -0.0000
  band No.  band energies     occupation 
      1     -21.9879      2.00000
      2     -21.9202      2.00000
      3     -21.8345      2.00000
      4     -21.7409      2.00000
      5     -21.6498      2.00000
      6     -21.5717      2.00000
      7     -21.5076      2.00000
      8     -21.4482      2.00000
      9     -20.6950      2.00000
     10     -20.5853      2.00000
     11      -9.9650      2.00000
     12      -9.7811      2.00000
     13      -9.6176      2.00000
     14      -9.5361      2.00000
     15      -9.4375      2.00000
     16      -9.2978      2.00000
     17      -9.2167      2.00000
     18      -9.0754      2.00000
     19      -8.4681      2.00000
     20      -8.1872      2.00000
     21      -7.8930      2.00000
     22      -7.5690      2.00000
     23      -7.2500      2.00000
     24      -7.0612      2.00000
     25      -6.9635      2.00000
     26      -6.9022      2.00000
     27      -6.8830      2.00000
     28      -6.7788      2.00000
     29      -6.6860      2.00000
     30      -6.6624      2.00000
     31      -6.5451      2.00000
     32      -6.5342      2.00000
     33      -6.4396      2.00000
     34      -6.4235      2.00000
     35      -6.3591      2.00000
     36      -6.2995      2.00000
     37      -5.4553      1.99481
     38      -5.4534      1.99384
     39      -5.4496      1.99153
     40      -5.2827      0.03683
     41       1.9640      0.00000
     42       2.3725      0.00000
     43       2.8707      0.00000
     44       3.3204      0.00000
     45       3.6253      0.00000
     46       3.7923      0.00000
     47       3.9388      0.00000
     48       4.0856      0.00000
     49       4.2564      0.00000
     50       4.3924      0.00000

 k-point    48 :       0.4615    0.4615   -0.0000
  band No.  band energies     occupation 
      1     -21.7495      2.00000
      2     -21.7127      2.00000
      3     -21.6670      2.00000
      4     -21.6181      2.00000
      5     -21.5734      2.00000
      6     -21.5455      2.00000
      7     -21.4633      2.00000
      8     -21.3727      2.00000
      9     -20.6320      2.00000
     10     -20.5115      2.00000
     11     -10.2435      2.00000
     12     -10.0592      2.00000
     13      -9.8164      2.00000
     14      -9.7401      2.00000
     15      -9.5970      2.00000
     16      -9.5802      2.00000
     17      -9.4457      2.00000
     18      -9.3216      2.00000
     19      -8.1476      2.00000
     20      -7.9910      2.00000
     21      -7.6945      2.00000
     22      -7.6260      2.00000
     23      -7.3959      2.00000
     24      -7.3258      2.00000
     25      -7.2124      2.00000
     26      -7.1102      2.00000
     27      -7.1009      2.00000
     28      -6.9821      2.00000
     29      -6.8671      2.00000
     30      -6.8398      2.00000
     31      -6.6983      2.00000
     32      -6.6953      2.00000
     33      -6.5771      2.00000
     34      -6.5598      2.00000
     35      -6.4924      2.00000
     36      -6.4782      2.00000
     37      -5.6095      2.00000
     38      -5.4574      1.99567
     39      -5.4464      1.98896
     40      -5.4329      1.96916
     41       2.2876      0.00000
     42       2.7207      0.00000
     43       3.2713      0.00000
     44       3.5761      0.00000
     45       3.8075      0.00000
     46       3.9753      0.00000
     47       4.1621      0.00000
     48       4.1793      0.00000
     49       4.3376      0.00000
     50       4.4653      0.00000

 k-point    49 :      -0.4615    0.4615   -0.0000
  band No.  band energies     occupation 
      1     -21.7990      2.00000
      2     -21.7544      2.00000
      3     -21.6997      2.00000
      4     -21.6417      2.00000
      5     -21.5880      2.00000
      6     -21.5510      2.00000
      7     -21.4775      2.00000
      8     -21.3918      2.00000
      9     -20.6471      2.00000
     10     -20.5280      2.00000
     11     -10.2654      2.00000
     12     -10.0800      2.00000
     13      -9.8351      2.00000
     14      -9.7736      2.00000
     15      -9.6215      2.00000
     16      -9.5945      2.00000
     17      -9.4618      2.00000
     18      -9.3373      2.00000
     19      -8.1856      2.00000
     20      -8.0511      2.00000
     21      -7.8032      2.00000
     22      -7.4816      2.00000
     23      -7.3893      2.00000
     24      -7.2372      2.00000
     25      -7.0288      2.00000
     26      -7.0228      2.00000
     27      -6.9479      2.00000
     28      -6.8434      2.00000
     29      -6.7851      2.00000
     30      -6.7266      2.00000
     31      -6.6177      2.00000
     32      -6.6088      2.00000
     33      -6.5028      2.00000
     34      -6.4940      2.00000
     35      -6.4223      2.00000
     36      -6.3618      2.00000
     37      -5.4991      1.99994
     38      -5.4789      1.99946
     39      -5.4518      1.99297
     40      -5.3316      0.48082
     41       2.0735      0.00000
     42       2.5177      0.00000
     43       3.0727      0.00000
     44       3.4878      0.00000
     45       3.5990      0.00000
     46       3.8249      0.00000
     47       3.9063      0.00000
     48       3.9868      0.00000
     49       4.1490      0.00000
     50       4.2754      0.00000


--------------------------------------------------------------------------------------------------------


 soft charge-density along one line, spin component           1
         0         1         2         3         4         5         6         7         8         9
 total charge-density along one line
 
 pseudopotential strength for first ion, spin component:           1
 13.555 -16.603  -0.000  -0.046   0.000   0.000   0.058  -0.000
-16.603  20.365   0.000   0.059  -0.000  -0.000  -0.074   0.000
 -0.000   0.000 -10.185  -0.001  -0.008  12.579   0.002   0.011
 -0.046   0.059  -0.001 -10.104   0.001   0.002  12.469  -0.001
  0.000  -0.000  -0.008   0.001 -10.194   0.011  -0.001  12.591
  0.000  -0.000  12.579   0.002   0.011 -15.453  -0.002  -0.015
  0.058  -0.074   0.002  12.469  -0.001  -0.002 -15.303   0.001
 -0.000   0.000   0.011  -0.001  12.591  -0.015   0.001 -15.470
 total augmentation occupancy for first ion, spin component:           1
  2.370   0.201   0.005   0.136  -0.003   0.001   0.047  -0.001
  0.201   0.036   0.000   0.147  -0.000   0.000   0.016  -0.000
  0.005   0.000   1.616  -0.000  -0.046   0.115   0.000  -0.004
  0.136   0.147  -0.000   1.970   0.000   0.000   0.134  -0.000
 -0.003  -0.000  -0.046   0.000   1.563  -0.004  -0.000   0.111
  0.001   0.000   0.115   0.000  -0.004   0.009   0.000  -0.000
  0.047   0.016   0.000   0.134  -0.000   0.000   0.011  -0.000
 -0.001  -0.000  -0.004  -0.000   0.111  -0.000  -0.000   0.009


------------------------ aborting loop because EDIFF is reached ----------------------------------------


    CHARGE:  cpu time    0.6306: real time    0.6313
    FORLOC:  cpu time    0.0113: real time    0.0122
    FORNL :  cpu time    2.7666: real time    2.7710
    STRESS:  cpu time    6.4323: real time    6.4416
    FORCOR:  cpu time    0.0939: real time    0.0941
    FORHAR:  cpu time    0.0339: real time    0.0340
    MIXING:  cpu time    0.0077: real time    0.0077
    OFIELD:  cpu time    0.0001: real time    0.0001

  FORCE on cell =-STRESS in cart. coord.  units (eV):
  Direction    XX          YY          ZZ          XY          YZ          ZX
  --------------------------------------------------------------------------------------
  Alpha Z    62.96260    62.96260    62.96260
  Ewald  173312.76115173294.36537************    15.93132  2490.85132 -1438.09415
  Hartree174191.77841174175.16318************    14.38918  2489.37270 -1437.24038
  E(xc)    -354.95399  -354.89651  -354.73376    -0.04979     0.06672    -0.03852
  Local  ************************347848.13666   -29.20145 -4980.31318  2875.38599
  n-local  -183.31535  -190.49035  -190.75800    -1.45544     1.16479     3.10942
  augment    66.60755    66.72478    67.74277    -0.10154     0.01066    -0.00630
  Kinetic  1378.70439  1414.35567  1407.83038     9.98870     0.64237    -0.23637
  Fock        0.00000     0.00000     0.00000     0.00000     0.00000     0.00000
  -------------------------------------------------------------------------------------
  Total       1.68486     0.29437    -3.09432     1.20420     0.10135    -0.05851
  in kB       5.01945     0.87697    -9.21843     3.58749     0.30193    -0.17432
  external pressure =       -1.11 kB  Pullay stress =        0.00 kB


 VOLUME and BASIS-vectors are now :
 -----------------------------------------------------------------------------
  energy-cutoff  :      450.00
  volume of cell :      537.80
      direct lattice vectors                 reciprocal lattice vectors
     2.595974150 -1.522302603 -0.021631981     0.386753138  0.002606133  0.001563730
    -0.020365814  3.009330567  0.021631976     0.195633548  0.333635020 -0.001563730
    -0.282768370  0.489769182 69.120091079     0.000059813 -0.000103600  0.014468552

  length of vectors
     3.009477520  3.009477225 69.122404635     0.386765080  0.386765118  0.014469047


 FORCES acting on ions
    electron-ion (+dipol)            ewald-force                    non-local-force                 convergence-correction
 -----------------------------------------------------------------------------------------------
   0.127E+02 -.220E+02 0.324E+04   -.126E+02 0.219E+02 -.326E+04   0.811E-01 -.140E+00 0.196E+02   0.134E-03 -.232E-03 0.134E-02
   0.460E+01 -.796E+01 0.110E+04   -.462E+01 0.800E+01 -.110E+04   0.181E-01 -.313E-01 -.558E+00   0.205E-04 -.355E-04 0.557E-02
   -.444E+01 0.769E+01 -.109E+04   0.442E+01 -.766E+01 0.109E+04   0.219E-01 -.379E-01 -.697E+00   -.149E-04 0.259E-04 -.334E-02
   -.134E+02 0.232E+02 -.325E+04   0.136E+02 -.236E+02 0.327E+04   -.183E+00 0.317E+00 -.159E+02   -.193E-05 0.335E-05 -.274E-02
   0.107E+02 -.186E+02 0.255E+04   -.107E+02 0.185E+02 -.255E+04   -.428E-01 0.741E-01 0.710E+00   0.516E-04 -.893E-04 0.940E-02
   0.760E+01 -.132E+02 0.183E+04   -.762E+01 0.132E+02 -.183E+04   0.146E-01 -.253E-01 -.418E+00   0.336E-04 -.583E-04 0.857E-02
   0.159E+01 -.275E+01 0.370E+03   -.161E+01 0.278E+01 -.369E+03   0.204E-01 -.353E-01 -.609E+00   0.750E-05 -.130E-04 0.144E-02
   -.143E+01 0.247E+01 -.358E+03   0.140E+01 -.243E+01 0.359E+03   0.219E-01 -.379E-01 -.619E+00   -.894E-05 0.155E-04 -.221E-02
   -.746E+01 0.129E+02 -.181E+04   0.744E+01 -.129E+02 0.182E+04   0.179E-01 -.309E-01 -.105E+01   -.162E-04 0.280E-04 -.264E-02
   -.105E+02 0.181E+02 -.254E+04   0.105E+02 -.181E+02 0.255E+04   0.286E-03 -.496E-03 -.266E+01   -.212E-04 0.366E-04 -.495E-02
   0.296E+01 -.512E+01 0.727E+03   -.297E+01 0.514E+01 -.726E+03   0.430E-02 -.745E-02 -.928E+00   0.112E-04 -.193E-04 0.280E-02
   -.938E-01 0.162E+00 -.146E+01   0.779E-01 -.135E+00 0.203E+01   0.140E-01 -.243E-01 -.948E+00   -.755E-06 0.131E-05 -.220E-03
   -.314E+01 0.543E+01 -.731E+03   0.312E+01 -.540E+01 0.732E+03   0.190E-01 -.329E-01 -.117E+01   -.401E-05 0.694E-05 -.107E-02
   0.513E+01 -.889E+01 0.969E+03   -.495E+01 0.857E+01 -.969E+03   -.289E+00 0.500E+00 -.106E+01   0.130E-04 -.226E-04 0.329E-02
   0.194E+01 -.335E+01 0.484E+03   -.195E+01 0.338E+01 -.484E+03   0.890E-02 -.154E-01 -.943E+00   0.992E-05 -.172E-04 0.232E-02
   0.915E+00 -.158E+01 0.241E+03   -.930E+00 0.161E+01 -.241E+03   0.131E-01 -.227E-01 -.947E+00   0.449E-05 -.778E-05 0.109E-02
   -.111E+01 0.192E+01 -.244E+03   0.109E+01 -.189E+01 0.245E+03   0.162E-01 -.281E-01 -.951E+00   -.450E-05 0.779E-05 -.109E-02
   -.211E+01 0.366E+01 -.487E+03   0.210E+01 -.363E+01 0.488E+03   0.166E-01 -.288E-01 -.983E+00   -.433E-05 0.750E-05 -.108E-02
   -.431E+01 0.747E+01 -.982E+03   0.427E+01 -.739E+01 0.984E+03   0.500E-01 -.866E-01 -.227E+01   -.658E-05 0.114E-04 -.131E-02
 -----------------------------------------------------------------------------------------------
   0.176E+00 -.305E+00 0.123E+02   -.888E-14 -.711E-14 0.114E-12   -.176E+00 0.305E+00 -.123E+02   0.203E-03 -.351E-03 0.152E-01
 
 
 POSITION                                       TOTAL-FORCE (eV/Angst)
 -----------------------------------------------------------------------------------
      1.10494      1.06024     30.93631         0.111355     -0.192872      0.893806
      1.16928      0.94880     38.31686        -0.000490      0.000849      0.393249
      1.17216      0.94382     45.70701         0.000883     -0.001530      0.351717
      1.17989      0.93043     52.93175         0.002982     -0.005165     -0.061262
      2.03165     -0.54486     33.37673        -0.003497      0.006057      0.722582
      0.29353      2.46565     35.86881        -0.000030      0.000051      0.434048
      2.04320     -0.56486     40.76621        -0.000067      0.000116      0.373365
      0.29980      2.45479     43.25808         0.000430     -0.000745      0.372862
      2.04479     -0.56762     48.15320         0.000408     -0.000706      0.279841
      0.30247      2.45016     50.62169         0.001028     -0.001781      0.121883
      1.15998      0.96491     34.70126        -0.004519      0.007828     -0.481915
      1.16740      0.95206     42.08947        -0.001842      0.003190     -0.374104
      1.16851      0.95014     49.48283         0.001000     -0.001732     -0.203117
      0.28455      2.48119     32.25364        -0.103644      0.179516     -1.344936
      2.03622     -0.55278     37.14877        -0.003259      0.005644     -0.398467
      0.29415      2.46457     39.64059        -0.001917      0.003321     -0.379013
      2.03979     -0.55897     44.53838        -0.000909      0.001574     -0.364459
      0.29585      2.46164     47.03117        -0.000407      0.000706     -0.340641
      2.04029     -0.55984     51.97775         0.002495     -0.004321      0.004559
 -----------------------------------------------------------------------------------
    total drift:                                0.000039     -0.000083      0.001463


--------------------------------------------------------------------------------------------------------



  FREE ENERGIE OF THE ION-ELECTRON SYSTEM (eV)
  ---------------------------------------------------
  free  energy   TOTEN  =      -107.95827770 eV

  energy  without entropy=     -107.93298663  energy(sigma->0) =     -107.94563217
 


--------------------------------------------------------------------------------------------------------


    POTLOK:  cpu time    0.2526: real time    0.2529


--------------------------------------------------------------------------------------------------------


 stress matrix after NEB project (eV)
      1.68486      1.20420     -0.05851
      1.20420      0.29437      0.10135
     -0.05851      0.10135     -3.09432
  FORCES: max atom, RMS     1.360816    0.514504
  FORCE total and by dimension    2.242672    1.344936
  Stress total and by dimension    3.927820    3.094316
     LOOP+:  cpu time  830.1557: real time  850.7579
    4ORBIT:  cpu time    0.0000: real time    0.0000

 total amount of memory used by VASP MPI-rank0   117931. kBytes
=======================================================================

   base      :      30000. kBytes
   nonl-proj :      31068. kBytes
   fftplans  :      21353. kBytes
   grid      :      11833. kBytes
   one-center:         40. kBytes
   wavefun   :      23637. kBytes
 
  
  
 General timing and accounting informations for this job:
 ========================================================
  
                  Total CPU time used (sec):      836.908
                            User time (sec):      830.153
                          System time (sec):        6.755
                         Elapsed time (sec):      857.793
  
                   Maximum memory used (kb):      311224.
                   Average memory used (kb):           0.
  
                          Minor page faults:       557270
                          Major page faults:            0
                 Voluntary context switches:          975
