Automatically generated mesh
    3600
Reciprocal lattice
    0.02083333333333    0.02083333333333    0.02083333333333             4
    0.06250000000000    0.02083333333333    0.02083333333333             4
    0.10416666666667    0.02083333333333    0.02083333333333             4
    0.14583333333333    0.02083333333333    0.02083333333333             4
    0.18750000000000    0.02083333333333    0.02083333333333             4
    0.22916666666667    0.02083333333333    0.02083333333333             4
    0.27083333333333    0.02083333333333    0.02083333333333             4
    0.31250000000000    0.02083333333333    0.02083333333333             4
    0.35416666666667    0.02083333333333    0.02083333333333             4
    0.39583333333333    0.02083333333333    0.02083333333333             4
    0.43750000000000    0.02083333333333    0.02083333333333             4
    0.47916666666667    0.02083333333333    0.02083333333333             4
   -0.47916666666667    0.02083333333333    0.02083333333333             4
   -0.43750000000000    0.02083333333333    0.02083333333333             4
   -0.39583333333333    0.02083333333333    0.02083333333333             4
   -0.35416666666667    0.02083333333333    0.02083333333333             4
   -0.31250000000000    0.02083333333333    0.02083333333333             4
   -0.27083333333333    0.02083333333333    0.02083333333333             4
   -0.22916666666667    0.02083333333333    0.02083333333333             4
   -0.18750000000000    0.02083333333333    0.02083333333333             4
   -0.14583333333333    0.02083333333333    0.02083333333333             4
   -0.10416666666667    0.02083333333333    0.02083333333333             4
   -0.06250000000000    0.02083333333333    0.02083333333333             4
   -0.02083333333333    0.02083333333333    0.02083333333333             2
    0.02083333333333    0.06250000000000    0.02083333333333             4
    0.06250000000000    0.06250000000000    0.02083333333333             4
    0.10416666666667    0.06250000000000    0.02083333333333             4
    0.14583333333333    0.06250000000000    0.02083333333333             4
    0.18750000000000    0.06250000000000    0.02083333333333             4
    0.22916666666667    0.06250000000000    0.02083333333333             4
    0.27083333333333    0.06250000000000    0.02083333333333             4
    0.31250000000000    0.06250000000000    0.02083333333333             4
    0.35416666666667    0.06250000000000    0.02083333333333             4
    0.39583333333333    0.06250000000000    0.02083333333333             4
    0.43750000000000    0.06250000000000    0.02083333333333             4
    0.47916666666667    0.06250000000000    0.02083333333333             4
   -0.47916666666667    0.06250000000000    0.02083333333333             4
   -0.43750000000000    0.06250000000000    0.02083333333333             4
   -0.39583333333333    0.06250000000000    0.02083333333333             4
   -0.35416666666667    0.06250000000000    0.02083333333333             4
   -0.31250000000000    0.06250000000000    0.02083333333333             4
   -0.27083333333333    0.06250000000000    0.02083333333333             4
   -0.22916666666667    0.06250000000000    0.02083333333333             4
   -0.18750000000000    0.06250000000000    0.02083333333333             4
   -0.14583333333333    0.06250000000000    0.02083333333333             4
   -0.10416666666667    0.06250000000000    0.02083333333333             4
   -0.06250000000000    0.06250000000000    0.02083333333333             2
    0.02083333333333    0.10416666666667    0.02083333333333             4
    0.06250000000000    0.10416666666667    0.02083333333333             4
    0.10416666666667    0.10416666666667    0.02083333333333             4
    0.14583333333333    0.10416666666667    0.02083333333333             4
    0.18750000000000    0.10416666666667    0.02083333333333             4
    0.22916666666667    0.10416666666667    0.02083333333333             4
    0.27083333333333    0.10416666666667    0.02083333333333             4
    0.31250000000000    0.10416666666667    0.02083333333333             4
    0.35416666666667    0.10416666666667    0.02083333333333             4
    0.39583333333333    0.10416666666667    0.02083333333333             4
    0.43750000000000    0.10416666666667    0.02083333333333             4
    0.47916666666667    0.10416666666667    0.02083333333333             4
   -0.47916666666667    0.10416666666667    0.02083333333333             4
   -0.43750000000000    0.10416666666667    0.02083333333333             4
   -0.39583333333333    0.10416666666667    0.02083333333333             4
   -0.35416666666667    0.10416666666667    0.02083333333333             4
   -0.31250000000000    0.10416666666667    0.02083333333333             4
   -0.27083333333333    0.10416666666667    0.02083333333333             4
   -0.22916666666667    0.10416666666667    0.02083333333333             4
   -0.18750000000000    0.10416666666667    0.02083333333333             4
   -0.14583333333333    0.10416666666667    0.02083333333333             4
   -0.10416666666667    0.10416666666667    0.02083333333333             2
    0.02083333333333    0.14583333333333    0.02083333333333             4
    0.06250000000000    0.14583333333333    0.02083333333333             4
    0.10416666666667    0.14583333333333    0.02083333333333             4
    0.14583333333333    0.14583333333333    0.02083333333333             4
    0.18750000000000    0.14583333333333    0.02083333333333             4
    0.22916666666667    0.14583333333333    0.02083333333333             4
    0.27083333333333    0.14583333333333    0.02083333333333             4
    0.31250000000000    0.14583333333333    0.02083333333333             4
    0.35416666666667    0.14583333333333    0.02083333333333             4
    0.39583333333333    0.14583333333333    0.02083333333333             4
    0.43750000000000    0.14583333333333    0.02083333333333             4
    0.47916666666667    0.14583333333333    0.02083333333333             4
   -0.47916666666667    0.14583333333333    0.02083333333333             4
   -0.43750000000000    0.14583333333333    0.02083333333333             4
   -0.39583333333333    0.14583333333333    0.02083333333333             4
   -0.35416666666667    0.14583333333333    0.02083333333333             4
   -0.31250000000000    0.14583333333333    0.02083333333333             4
   -0.27083333333333    0.14583333333333    0.02083333333333             4
   -0.22916666666667    0.14583333333333    0.02083333333333             4
   -0.18750000000000    0.14583333333333    0.02083333333333             4
   -0.14583333333333    0.14583333333333    0.02083333333333             2
    0.02083333333333    0.18750000000000    0.02083333333333             4
    0.06250000000000    0.18750000000000    0.02083333333333             4
    0.10416666666667    0.18750000000000    0.02083333333333             4
    0.14583333333333    0.18750000000000    0.02083333333333             4
    0.18750000000000    0.18750000000000    0.02083333333333             4
    0.22916666666667    0.18750000000000    0.02083333333333             4
    0.27083333333333    0.18750000000000    0.02083333333333             4
    0.31250000000000    0.18750000000000    0.02083333333333             4
    0.35416666666667    0.18750000000000    0.02083333333333             4
    0.39583333333333    0.18750000000000    0.02083333333333             4
    0.43750000000000    0.18750000000000    0.02083333333333             4
    0.47916666666667    0.18750000000000    0.02083333333333             4
   -0.47916666666667    0.18750000000000    0.02083333333333             4
   -0.43750000000000    0.18750000000000    0.02083333333333             4
   -0.39583333333333    0.18750000000000    0.02083333333333             4
   -0.35416666666667    0.18750000000000    0.02083333333333             4
   -0.31250000000000    0.18750000000000    0.02083333333333             4
   -0.27083333333333    0.18750000000000    0.02083333333333             4
   -0.22916666666667    0.18750000000000    0.02083333333333             4
   -0.18750000000000    0.18750000000000    0.02083333333333             2
    0.02083333333333    0.22916666666667    0.02083333333333             4
    0.06250000000000    0.22916666666667    0.02083333333333             4
    0.10416666666667    0.22916666666667    0.02083333333333             4
    0.14583333333333    0.22916666666667    0.02083333333333             4
    0.18750000000000    0.22916666666667    0.02083333333333             4
    0.22916666666667    0.22916666666667    0.02083333333333             4
    0.27083333333333    0.22916666666667    0.02083333333333             4
    0.31250000000000    0.22916666666667    0.02083333333333             4
    0.35416666666667    0.22916666666667    0.02083333333333             4
    0.39583333333333    0.22916666666667    0.02083333333333             4
    0.43750000000000    0.22916666666667    0.02083333333333             4
    0.47916666666667    0.22916666666667    0.02083333333333             4
   -0.47916666666667    0.22916666666667    0.02083333333333             4
   -0.43750000000000    0.22916666666667    0.02083333333333             4
   -0.39583333333333    0.22916666666667    0.02083333333333             4
   -0.35416666666667    0.22916666666667    0.02083333333333             4
   -0.31250000000000    0.22916666666667    0.02083333333333             4
   -0.27083333333333    0.22916666666667    0.02083333333333             4
   -0.22916666666667    0.22916666666667    0.02083333333333             2
    0.02083333333333    0.27083333333333    0.02083333333333             4
    0.06250000000000    0.27083333333333    0.02083333333333             4
    0.10416666666667    0.27083333333333    0.02083333333333             4
    0.14583333333333    0.27083333333333    0.02083333333333             4
    0.18750000000000    0.27083333333333    0.02083333333333             4
    0.22916666666667    0.27083333333333    0.02083333333333             4
    0.27083333333333    0.27083333333333    0.02083333333333             4
    0.31250000000000    0.27083333333333    0.02083333333333             4
    0.35416666666667    0.27083333333333    0.02083333333333             4
    0.39583333333333    0.27083333333333    0.02083333333333             4
    0.43750000000000    0.27083333333333    0.02083333333333             4
    0.47916666666667    0.27083333333333    0.02083333333333             4
   -0.47916666666667    0.27083333333333    0.02083333333333             4
   -0.43750000000000    0.27083333333333    0.02083333333333             4
   -0.39583333333333    0.27083333333333    0.02083333333333             4
   -0.35416666666667    0.27083333333333    0.02083333333333             4
   -0.31250000000000    0.27083333333333    0.02083333333333             4
   -0.27083333333333    0.27083333333333    0.02083333333333             2
    0.02083333333333    0.31250000000000    0.02083333333333             4
    0.06250000000000    0.31250000000000    0.02083333333333             4
    0.10416666666667    0.31250000000000    0.02083333333333             4
    0.14583333333333    0.31250000000000    0.02083333333333             4
    0.18750000000000    0.31250000000000    0.02083333333333             4
    0.22916666666667    0.31250000000000    0.02083333333333             4
    0.27083333333333    0.31250000000000    0.02083333333333             4
    0.31250000000000    0.31250000000000    0.02083333333333             4
    0.35416666666667    0.31250000000000    0.02083333333333             4
    0.39583333333333    0.31250000000000    0.02083333333333             4
    0.43750000000000    0.31250000000000    0.02083333333333             4
    0.47916666666667    0.31250000000000    0.02083333333333             4
   -0.47916666666667    0.31250000000000    0.02083333333333             4
   -0.43750000000000    0.31250000000000    0.02083333333333             4
   -0.39583333333333    0.31250000000000    0.02083333333333             4
   -0.35416666666667    0.31250000000000    0.02083333333333             4
   -0.31250000000000    0.31250000000000    0.02083333333333             2
    0.02083333333333    0.35416666666667    0.02083333333333             4
    0.06250000000000    0.35416666666667    0.02083333333333             4
    0.10416666666667    0.35416666666667    0.02083333333333             4
    0.14583333333333    0.35416666666667    0.02083333333333             4
    0.18750000000000    0.35416666666667    0.02083333333333             4
    0.22916666666667    0.35416666666667    0.02083333333333             4
    0.27083333333333    0.35416666666667    0.02083333333333             4
    0.31250000000000    0.35416666666667    0.02083333333333             4
    0.35416666666667    0.35416666666667    0.02083333333333             4
    0.39583333333333    0.35416666666667    0.02083333333333             4
    0.43750000000000    0.35416666666667    0.02083333333333             4
    0.47916666666667    0.35416666666667    0.02083333333333             4
   -0.47916666666667    0.35416666666667    0.02083333333333             4
   -0.43750000000000    0.35416666666667    0.02083333333333             4
   -0.39583333333333    0.35416666666667    0.02083333333333             4
   -0.35416666666667    0.35416666666667    0.02083333333333             2
    0.02083333333333    0.39583333333333    0.02083333333333             4
    0.06250000000000    0.39583333333333    0.02083333333333             4
    0.10416666666667    0.39583333333333    0.02083333333333             4
    0.14583333333333    0.39583333333333    0.02083333333333             4
    0.18750000000000    0.39583333333333    0.02083333333333             4
    0.22916666666667    0.39583333333333    0.02083333333333             4
    0.27083333333333    0.39583333333333    0.02083333333333             4
    0.31250000000000    0.39583333333333    0.02083333333333             4
    0.35416666666667    0.39583333333333    0.02083333333333             4
    0.39583333333333    0.39583333333333    0.02083333333333             4
    0.43750000000000    0.39583333333333    0.02083333333333             4
    0.47916666666667    0.39583333333333    0.02083333333333             4
   -0.47916666666667    0.39583333333333    0.02083333333333             4
   -0.43750000000000    0.39583333333333    0.02083333333333             4
   -0.39583333333333    0.39583333333333    0.02083333333333             2
    0.02083333333333    0.43750000000000    0.02083333333333             4
    0.06250000000000    0.43750000000000    0.02083333333333             4
    0.10416666666667    0.43750000000000    0.02083333333333             4
    0.14583333333333    0.43750000000000    0.02083333333333             4
    0.18750000000000    0.43750000000000    0.02083333333333             4
    0.22916666666667    0.43750000000000    0.02083333333333             4
    0.27083333333333    0.43750000000000    0.02083333333333             4
    0.31250000000000    0.43750000000000    0.02083333333333             4
    0.35416666666667    0.43750000000000    0.02083333333333             4
    0.39583333333333    0.43750000000000    0.02083333333333             4
    0.43750000000000    0.43750000000000    0.02083333333333             4
    0.47916666666667    0.43750000000000    0.02083333333333             4
   -0.47916666666667    0.43750000000000    0.02083333333333             4
   -0.43750000000000    0.43750000000000    0.02083333333333             2
    0.02083333333333    0.47916666666667    0.02083333333333             4
    0.06250000000000    0.47916666666667    0.02083333333333             4
    0.10416666666667    0.47916666666667    0.02083333333333             4
    0.14583333333333    0.47916666666667    0.02083333333333             4
    0.18750000000000    0.47916666666667    0.02083333333333             4
    0.22916666666667    0.47916666666667    0.02083333333333             4
    0.27083333333333    0.47916666666667    0.02083333333333             4
    0.31250000000000    0.47916666666667    0.02083333333333             4
    0.35416666666667    0.47916666666667    0.02083333333333             4
    0.39583333333333    0.47916666666667    0.02083333333333             4
    0.43750000000000    0.47916666666667    0.02083333333333             4
    0.47916666666667    0.47916666666667    0.02083333333333             4
   -0.47916666666667    0.47916666666667    0.02083333333333             2
    0.02083333333333   -0.47916666666667    0.02083333333333             4
    0.06250000000000   -0.47916666666667    0.02083333333333             4
    0.10416666666667   -0.47916666666667    0.02083333333333             4
    0.14583333333333   -0.47916666666667    0.02083333333333             4
    0.18750000000000   -0.47916666666667    0.02083333333333             4
    0.22916666666667   -0.47916666666667    0.02083333333333             4
    0.27083333333333   -0.47916666666667    0.02083333333333             4
    0.31250000000000   -0.47916666666667    0.02083333333333             4
    0.35416666666667   -0.47916666666667    0.02083333333333             4
    0.39583333333333   -0.47916666666667    0.02083333333333             4
    0.43750000000000   -0.47916666666667    0.02083333333333             4
    0.47916666666667   -0.47916666666667    0.02083333333333             2
    0.02083333333333   -0.43750000000000    0.02083333333333             4
    0.06250000000000   -0.43750000000000    0.02083333333333             4
    0.10416666666667   -0.43750000000000    0.02083333333333             4
    0.14583333333333   -0.43750000000000    0.02083333333333             4
    0.18750000000000   -0.43750000000000    0.02083333333333             4
    0.22916666666667   -0.43750000000000    0.02083333333333             4
    0.27083333333333   -0.43750000000000    0.02083333333333             4
    0.31250000000000   -0.43750000000000    0.02083333333333             4
    0.35416666666667   -0.43750000000000    0.02083333333333             4
    0.39583333333333   -0.43750000000000    0.02083333333333             4
    0.43750000000000   -0.43750000000000    0.02083333333333             2
    0.02083333333333   -0.39583333333333    0.02083333333333             4
    0.06250000000000   -0.39583333333333    0.02083333333333             4
    0.10416666666667   -0.39583333333333    0.02083333333333             4
    0.14583333333333   -0.39583333333333    0.02083333333333             4
    0.18750000000000   -0.39583333333333    0.02083333333333             4
    0.22916666666667   -0.39583333333333    0.02083333333333             4
    0.27083333333333   -0.39583333333333    0.02083333333333             4
    0.31250000000000   -0.39583333333333    0.02083333333333             4
    0.35416666666667   -0.39583333333333    0.02083333333333             4
    0.39583333333333   -0.39583333333333    0.02083333333333             2
    0.02083333333333   -0.35416666666667    0.02083333333333             4
    0.06250000000000   -0.35416666666667    0.02083333333333             4
    0.10416666666667   -0.35416666666667    0.02083333333333             4
    0.14583333333333   -0.35416666666667    0.02083333333333             4
    0.18750000000000   -0.35416666666667    0.02083333333333             4
    0.22916666666667   -0.35416666666667    0.02083333333333             4
    0.27083333333333   -0.35416666666667    0.02083333333333             4
    0.31250000000000   -0.35416666666667    0.02083333333333             4
    0.35416666666667   -0.35416666666667    0.02083333333333             2
    0.02083333333333   -0.31250000000000    0.02083333333333             4
    0.06250000000000   -0.31250000000000    0.02083333333333             4
    0.10416666666667   -0.31250000000000    0.02083333333333             4
    0.14583333333333   -0.31250000000000    0.02083333333333             4
    0.18750000000000   -0.31250000000000    0.02083333333333             4
    0.22916666666667   -0.31250000000000    0.02083333333333             4
    0.27083333333333   -0.31250000000000    0.02083333333333             4
    0.31250000000000   -0.31250000000000    0.02083333333333             2
    0.02083333333333   -0.27083333333333    0.02083333333333             4
    0.06250000000000   -0.27083333333333    0.02083333333333             4
    0.10416666666667   -0.27083333333333    0.02083333333333             4
    0.14583333333333   -0.27083333333333    0.02083333333333             4
    0.18750000000000   -0.27083333333333    0.02083333333333             4
    0.22916666666667   -0.27083333333333    0.02083333333333             4
    0.27083333333333   -0.27083333333333    0.02083333333333             2
    0.02083333333333   -0.22916666666667    0.02083333333333             4
    0.06250000000000   -0.22916666666667    0.02083333333333             4
    0.10416666666667   -0.22916666666667    0.02083333333333             4
    0.14583333333333   -0.22916666666667    0.02083333333333             4
    0.18750000000000   -0.22916666666667    0.02083333333333             4
    0.22916666666667   -0.22916666666667    0.02083333333333             2
    0.02083333333333   -0.18750000000000    0.02083333333333             4
    0.06250000000000   -0.18750000000000    0.02083333333333             4
    0.10416666666667   -0.18750000000000    0.02083333333333             4
    0.14583333333333   -0.18750000000000    0.02083333333333             4
    0.18750000000000   -0.18750000000000    0.02083333333333             2
    0.02083333333333   -0.14583333333333    0.02083333333333             4
    0.06250000000000   -0.14583333333333    0.02083333333333             4
    0.10416666666667   -0.14583333333333    0.02083333333333             4
    0.14583333333333   -0.14583333333333    0.02083333333333             2
    0.02083333333333   -0.10416666666667    0.02083333333333             4
    0.06250000000000   -0.10416666666667    0.02083333333333             4
    0.10416666666667   -0.10416666666667    0.02083333333333             2
    0.02083333333333   -0.06250000000000    0.02083333333333             4
    0.06250000000000   -0.06250000000000    0.02083333333333             2
    0.02083333333333   -0.02083333333333    0.02083333333333             2
    0.02083333333333    0.02083333333333    0.06250000000000             4
    0.06250000000000    0.02083333333333    0.06250000000000             4
    0.10416666666667    0.02083333333333    0.06250000000000             4
    0.14583333333333    0.02083333333333    0.06250000000000             4
    0.18750000000000    0.02083333333333    0.06250000000000             4
    0.22916666666667    0.02083333333333    0.06250000000000             4
    0.27083333333333    0.02083333333333    0.06250000000000             4
    0.31250000000000    0.02083333333333    0.06250000000000             4
    0.35416666666667    0.02083333333333    0.06250000000000             4
    0.39583333333333    0.02083333333333    0.06250000000000             4
    0.43750000000000    0.02083333333333    0.06250000000000             4
    0.47916666666667    0.02083333333333    0.06250000000000             4
   -0.47916666666667    0.02083333333333    0.06250000000000             4
   -0.43750000000000    0.02083333333333    0.06250000000000             4
   -0.39583333333333    0.02083333333333    0.06250000000000             4
   -0.35416666666667    0.02083333333333    0.06250000000000             4
   -0.31250000000000    0.02083333333333    0.06250000000000             4
   -0.27083333333333    0.02083333333333    0.06250000000000             4
   -0.22916666666667    0.02083333333333    0.06250000000000             4
   -0.18750000000000    0.02083333333333    0.06250000000000             4
   -0.14583333333333    0.02083333333333    0.06250000000000             4
   -0.10416666666667    0.02083333333333    0.06250000000000             4
   -0.06250000000000    0.02083333333333    0.06250000000000             4
   -0.02083333333333    0.02083333333333    0.06250000000000             2
    0.02083333333333    0.06250000000000    0.06250000000000             4
    0.06250000000000    0.06250000000000    0.06250000000000             4
    0.10416666666667    0.06250000000000    0.06250000000000             4
    0.14583333333333    0.06250000000000    0.06250000000000             4
    0.18750000000000    0.06250000000000    0.06250000000000             4
    0.22916666666667    0.06250000000000    0.06250000000000             4
    0.27083333333333    0.06250000000000    0.06250000000000             4
    0.31250000000000    0.06250000000000    0.06250000000000             4
    0.35416666666667    0.06250000000000    0.06250000000000             4
    0.39583333333333    0.06250000000000    0.06250000000000             4
    0.43750000000000    0.06250000000000    0.06250000000000             4
    0.47916666666667    0.06250000000000    0.06250000000000             4
   -0.47916666666667    0.06250000000000    0.06250000000000             4
   -0.43750000000000    0.06250000000000    0.06250000000000             4
   -0.39583333333333    0.06250000000000    0.06250000000000             4
   -0.35416666666667    0.06250000000000    0.06250000000000             4
   -0.31250000000000    0.06250000000000    0.06250000000000             4
   -0.27083333333333    0.06250000000000    0.06250000000000             4
   -0.22916666666667    0.06250000000000    0.06250000000000             4
   -0.18750000000000    0.06250000000000    0.06250000000000             4
   -0.14583333333333    0.06250000000000    0.06250000000000             4
   -0.10416666666667    0.06250000000000    0.06250000000000             4
   -0.06250000000000    0.06250000000000    0.06250000000000             2
    0.02083333333333    0.10416666666667    0.06250000000000             4
    0.06250000000000    0.10416666666667    0.06250000000000             4
    0.10416666666667    0.10416666666667    0.06250000000000             4
    0.14583333333333    0.10416666666667    0.06250000000000             4
    0.18750000000000    0.10416666666667    0.06250000000000             4
    0.22916666666667    0.10416666666667    0.06250000000000             4
    0.27083333333333    0.10416666666667    0.06250000000000             4
    0.31250000000000    0.10416666666667    0.06250000000000             4
    0.35416666666667    0.10416666666667    0.06250000000000             4
    0.39583333333333    0.10416666666667    0.06250000000000             4
    0.43750000000000    0.10416666666667    0.06250000000000             4
    0.47916666666667    0.10416666666667    0.06250000000000             4
   -0.47916666666667    0.10416666666667    0.06250000000000             4
   -0.43750000000000    0.10416666666667    0.06250000000000             4
   -0.39583333333333    0.10416666666667    0.06250000000000             4
   -0.35416666666667    0.10416666666667    0.06250000000000             4
   -0.31250000000000    0.10416666666667    0.06250000000000             4
   -0.27083333333333    0.10416666666667    0.06250000000000             4
   -0.22916666666667    0.10416666666667    0.06250000000000             4
   -0.18750000000000    0.10416666666667    0.06250000000000             4
   -0.14583333333333    0.10416666666667    0.06250000000000             4
   -0.10416666666667    0.10416666666667    0.06250000000000             2
    0.02083333333333    0.14583333333333    0.06250000000000             4
    0.06250000000000    0.14583333333333    0.06250000000000             4
    0.10416666666667    0.14583333333333    0.06250000000000             4
    0.14583333333333    0.14583333333333    0.06250000000000             4
    0.18750000000000    0.14583333333333    0.06250000000000             4
    0.22916666666667    0.14583333333333    0.06250000000000             4
    0.27083333333333    0.14583333333333    0.06250000000000             4
    0.31250000000000    0.14583333333333    0.06250000000000             4
    0.35416666666667    0.14583333333333    0.06250000000000             4
    0.39583333333333    0.14583333333333    0.06250000000000             4
    0.43750000000000    0.14583333333333    0.06250000000000             4
    0.47916666666667    0.14583333333333    0.06250000000000             4
   -0.47916666666667    0.14583333333333    0.06250000000000             4
   -0.43750000000000    0.14583333333333    0.06250000000000             4
   -0.39583333333333    0.14583333333333    0.06250000000000             4
   -0.35416666666667    0.14583333333333    0.06250000000000             4
   -0.31250000000000    0.14583333333333    0.06250000000000             4
   -0.27083333333333    0.14583333333333    0.06250000000000             4
   -0.22916666666667    0.14583333333333    0.06250000000000             4
   -0.18750000000000    0.14583333333333    0.06250000000000             4
   -0.14583333333333    0.14583333333333    0.06250000000000             2
    0.02083333333333    0.18750000000000    0.06250000000000             4
    0.06250000000000    0.18750000000000    0.06250000000000             4
    0.10416666666667    0.18750000000000    0.06250000000000             4
    0.14583333333333    0.18750000000000    0.06250000000000             4
    0.18750000000000    0.18750000000000    0.06250000000000             4
    0.22916666666667    0.18750000000000    0.06250000000000             4
    0.27083333333333    0.18750000000000    0.06250000000000             4
    0.31250000000000    0.18750000000000    0.06250000000000             4
    0.35416666666667    0.18750000000000    0.06250000000000             4