       N       E                     dE             d eps       ncg     rms          rms(c)
DAV:   1     0.668626650622E+03    0.66863E+03   -0.43915E+04514100   0.126E+03
DAV:   2    -0.428622291088E+02   -0.71149E+03   -0.67640E+03672360   0.259E+02
DAV:   3    -0.145568696541E+03   -0.10271E+03   -0.10015E+03601310   0.101E+02
DAV:   4    -0.149055864887E+03   -0.34872E+01   -0.34677E+01610740   0.208E+01
DAV:   5    -0.149179400338E+03   -0.12354E+00   -0.12345E+00698340   0.358E+00
DAV:   6    -0.149182653501E+03   -0.32532E-02   -0.32524E-02670070   0.574E-01
DAV:   7    -0.149182810414E+03   -0.15691E-03   -0.15690E-03731840   0.109E-01
DAV:   8    -0.149182815042E+03   -0.46283E-05   -0.46280E-05520220   0.171E-02
   1 F= -.14918282E+03 E0= -.14917196E+03  d E =-.217056E-01
