       N       E                     dE             d eps       ncg     rms          rms(c)
DAV:   1     0.716824244759E+03    0.71682E+03   -0.41151E+04 19190   0.124E+03
DAV:   2    -0.422450285051E+02   -0.75907E+03   -0.71935E+03 24880   0.278E+02
DAV:   3    -0.153795368191E+03   -0.11155E+03   -0.11069E+03 22275   0.112E+02
DAV:   4    -0.156997506384E+03   -0.32021E+01   -0.31954E+01 22930   0.220E+01
DAV:   5    -0.157084758794E+03   -0.87252E-01   -0.87233E-01 24915   0.333E+00    0.238E+01
DAV:   6    -0.143030729435E+03    0.14054E+02   -0.11614E+02 22720   0.343E+01    0.246E+01
DAV:   7    -0.145431744350E+03   -0.24010E+01   -0.21797E+02 21700   0.147E+01    0.114E+01
DAV:   8    -0.142505337199E+03    0.29264E+01   -0.31720E+00 22460   0.725E+00    0.737E+00
DAV:   9    -0.138822963347E+03    0.36824E+01   -0.20681E+00 25330   0.127E+01    0.417E+00
DAV:  10    -0.142253834122E+03   -0.34309E+01   -0.24286E+01 22670   0.912E+00    0.214E+01
DAV:  11    -0.138454813277E+03    0.37990E+01   -0.43909E+01 21525   0.506E+00    0.451E+00
DAV:  12    -0.138095156226E+03    0.35966E+00   -0.24995E-01 23620   0.229E+00    0.506E+00
DAV:  13    -0.137711831697E+03    0.38332E+00   -0.20908E-02 22350   0.124E+00    0.387E+00
DAV:  14    -0.137615951601E+03    0.95880E-01   -0.24686E-02 22805   0.536E-01    0.289E+00
DAV:  15    -0.137584657789E+03    0.31294E-01   -0.87974E-03 21785   0.234E-01    0.237E+00
DAV:  16    -0.137549073743E+03    0.35584E-01   -0.78775E-02 26855   0.415E-01    0.174E+00
DAV:  17    -0.137564732180E+03   -0.15658E-01   -0.72432E-03 21545   0.233E-01    0.206E+00
DAV:  18    -0.137541580356E+03    0.23152E-01   -0.53045E-02 22950   0.365E-01    0.159E+00
DAV:  19    -0.137541408286E+03    0.17207E-03   -0.42726E-02 23885   0.295E-01    0.155E+00
DAV:  20    -0.137521843106E+03    0.19565E-01   -0.13427E-01 21385   0.883E-01    0.957E-01
DAV:  21    -0.137550941596E+03   -0.29098E-01   -0.14688E-01 23130   0.618E-01    0.216E+00
DAV:  22    -0.137522502580E+03    0.28439E-01   -0.33254E-01 21405   0.510E-01    0.136E+00
DAV:  23    -0.137511798183E+03    0.10704E-01   -0.29668E-03 21630   0.356E-01    0.105E+00
DAV:  24    -0.137511623158E+03    0.17502E-03   -0.83597E-03 24205   0.358E-01    0.118E+00
DAV:  25    -0.137511765829E+03   -0.14267E-03   -0.27986E-03 23550   0.338E-01    0.129E+00
DAV:  26    -0.137507360701E+03    0.44051E-02   -0.68936E-02 25765   0.466E-01    0.771E-01
DAV:  27    -0.137505573838E+03    0.17869E-02   -0.65478E-03 20930   0.195E-01    0.477E-01
DAV:  28    -0.137507518426E+03   -0.19446E-02   -0.21098E-03 22345   0.945E-02    0.704E-01
DAV:  29    -0.137502379743E+03    0.51387E-02   -0.84272E-03 21225   0.121E-01    0.154E-01
DAV:  30    -0.137500513113E+03    0.18666E-02   -0.49880E-03 21420   0.110E-01    0.463E-01
DAV:  31    -0.137501045553E+03   -0.53244E-03   -0.45267E-03 20695   0.808E-02    0.602E-02
DAV:  32    -0.137500892058E+03    0.15350E-03   -0.10840E-04 21205   0.675E-02    0.800E-02
DAV:  33    -0.137502652150E+03   -0.17601E-02   -0.12389E-03 23000   0.119E-01    0.339E-01
DAV:  34    -0.137501933889E+03    0.71826E-03   -0.27501E-04 21945   0.604E-02    0.287E-01
DAV:  35    -0.137498072396E+03    0.38615E-02   -0.46993E-03 23780   0.137E-01    0.324E-01
DAV:  36    -0.137497545891E+03    0.52651E-03   -0.54046E-04 21835   0.832E-02    0.276E-01
DAV:  37    -0.137498994947E+03   -0.14491E-02   -0.33975E-03 23945   0.657E-02    0.122E-01
DAV:  38    -0.137497633157E+03    0.13618E-02   -0.36538E-04 19825   0.504E-02    0.132E-01
DAV:  39    -0.137497498823E+03    0.13433E-03   -0.68869E-05 19545   0.320E-02    0.140E-01
DAV:  40    -0.137499204496E+03   -0.17057E-02   -0.12284E-03 17110   0.432E-02    0.166E-01
DAV:  41    -0.137498576738E+03    0.62776E-03   -0.66583E-05 17455   0.272E-02    0.107E-01
DAV:  42    -0.137497679039E+03    0.89770E-03   -0.10905E-04 18755   0.412E-02    0.715E-02
DAV:  43    -0.137497900698E+03   -0.22166E-03   -0.58362E-05 18780   0.288E-02    0.911E-02
DAV:  44    -0.137497361490E+03    0.53921E-03   -0.10771E-03 17720   0.393E-02    0.301E-01
DAV:  45    -0.137497132415E+03    0.22908E-03   -0.82906E-05 18745   0.196E-02    0.215E-01
DAV:  46    -0.137497270707E+03   -0.13829E-03   -0.20164E-05 14440   0.153E-02    0.192E-01
DAV:  47    -0.137498783502E+03   -0.15128E-02   -0.15395E-03 17480   0.461E-02    0.107E-01
DAV:  48    -0.137498385483E+03    0.39802E-03   -0.21637E-05 15790   0.228E-02    0.264E-02
DAV:  49    -0.137498260131E+03    0.12535E-03   -0.54421E-06 12890   0.835E-03    0.214E-02
DAV:  50    -0.137498306846E+03   -0.46715E-04   -0.41176E-05 13485   0.122E-02    0.245E-02
DAV:  51    -0.137498498123E+03   -0.19128E-03   -0.68450E-06 13595   0.832E-03    0.477E-02
DAV:  52    -0.137498451821E+03    0.46302E-04   -0.97263E-06 11470   0.822E-03    0.374E-02
DAV:  53    -0.137498497165E+03   -0.45343E-04   -0.52488E-06 12140   0.751E-03    0.389E-02
DAV:  54    -0.137498384676E+03    0.11249E-03   -0.16569E-06 12095   0.693E-03    0.264E-02
DAV:  55    -0.137498207552E+03    0.17712E-03   -0.12043E-06 12250   0.683E-03    0.988E-03
DAV:  56    -0.137498296571E+03   -0.89019E-04   -0.35124E-06 12085   0.770E-03    0.140E-02
DAV:  57    -0.137498189070E+03    0.10750E-03   -0.39362E-06 12320   0.803E-03    0.524E-03
DAV:  58    -0.137498120189E+03    0.68880E-04   -0.22136E-06 12480   0.687E-03    0.386E-02
DAV:  59    -0.137498124218E+03   -0.40288E-05   -0.70044E-07 11495   0.332E-03
   1 F= -.13749812E+03 E0= -.13749812E+03  d E =0.000000E+00
