 vasp.5.4.4.18Apr17-6-g9f103f2a35 (build Nov 15 2019 10:10:58) complex          
  
 executed on             LinuxIFC date 2024.07.31  11:25:34
 running on   20 total cores
 distrk:  each k-point on   20 cores,    1 groups
 distr:  one band on NCORES_PER_BAND=   4 cores,    5 groups


--------------------------------------------------------------------------------------------------------


 INCAR:
 POTCAR:    PAW_PBE O 08Apr2002                   
 POTCAR:    PAW_PBE Mg 13Apr2007                  
 POTCAR:    PAW_PBE Al 04Jan2001                  
 POTCAR:    PAW_PBE O 08Apr2002                   
   VRHFIN =O: s2p4                                                              
   LEXCH  = PE                                                                  
   EATOM  =   432.3788 eV,   31.7789 Ry                                         
                                                                                
   TITEL  = PAW_PBE O 08Apr2002                                                 
   LULTRA =        F    use ultrasoft PP ?                                      
   IUNSCR =        1    unscreen: 0-lin 1-nonlin 2-no                           
   RPACOR =    1.200    partial core radius                                     
   POMASS =   16.000; ZVAL   =    6.000    mass and valenz                      
   RCORE  =    1.520    outmost cutoff radius                                   
   RWIGS  =    1.550; RWIGS  =    0.820    wigner-seitz radius (au A)           
   ENMAX  =  400.000; ENMIN  =  300.000 eV                                      
   ICORE  =        2    local potential                                         
   LCOR   =        T    correct aug charges                                     
   LPAW   =        T    paw PP                                                  
   EAUG   =  605.392                                                            
   DEXC   =    0.000                                                            
   RMAX   =    1.553    core radius for proj-oper                               
   RAUG   =    1.300    factor for augmentation sphere                          
   RDEP   =    1.550    radius for radial grids                                 
   RDEPT  =    1.329    core radius for aug-charge                              
                                                                                
   Atomic configuration                                                         
    4 entries                                                                   
     n  l   j            E        occ.                                          
     1  0  0.50      -514.6923   2.0000                                         
     2  0  0.50       -23.9615   2.0000                                         
     2  1  0.50        -9.0305   4.0000                                         
     3  2  1.50        -9.5241   0.0000                                         
   Description                                                                  
     l       E           TYP  RCUT    TYP  RCUT                                 
     0    -23.9615318     23  1.200                                             
     0     -9.5240782     23  1.200                                             
     1     -9.0304911     23  1.520                                             
     1      8.1634956     23  1.520                                             
     2     -9.5240782      7  1.500                                             
  local pseudopotential read in
  partial core-charges read in
  partial kinetic energy density read in
  kinetic energy density of atom read in
  atomic valenz-charges read in
  non local Contribution for L=           0  read in
    real space projection operators read in
  non local Contribution for L=           0  read in
    real space projection operators read in
  non local Contribution for L=           1  read in
    real space projection operators read in
  non local Contribution for L=           1  read in
    real space projection operators read in
    PAW grid and wavefunctions read in
 
   number of l-projection  operators is LMAX  =           4
   number of lm-projection operators is LMMAX =           8
 
 POTCAR:    PAW_PBE Mg 13Apr2007                  
   VRHFIN =Mg: s2p0                                                             
   LEXCH  = PE                                                                  
   EATOM  =    23.0369 eV,    1.6932 Ry                                         
                                                                                
   TITEL  = PAW_PBE Mg 13Apr2007                                                
   LULTRA =        F    use ultrasoft PP ?                                      
   IUNSCR =        1    unscreen: 0-lin 1-nonlin 2-no                           
   RPACOR =    1.500    partial core radius                                     
   POMASS =   24.305; ZVAL   =    2.000    mass and valenz                      
   RCORE  =    2.000    outmost cutoff radius                                   
   RWIGS  =    2.880; RWIGS  =    1.524    wigner-seitz radius (au A)           
   ENMAX  =  200.000; ENMIN  =  100.000 eV                                      
   RCLOC  =    1.506    cutoff for local pot                                    
   LCOR   =        T    correct aug charges                                     
   LPAW   =        T    paw PP                                                  
   EAUG   =  454.734                                                            
   DEXC   =    0.000                                                            
   RMAX   =    2.045    core radius for proj-oper                               
   RAUG   =    1.300    factor for augmentation sphere                          
   RDEP   =    2.025    radius for radial grids                                 
   RDEPT  =    1.942    core radius for aug-charge                              
                                                                                
   Atomic configuration                                                         
    6 entries                                                                   
     n  l   j            E        occ.                                          
     1  0  0.50     -1259.6230   2.0000                                         
     2  0  0.50       -79.8442   2.0000                                         
     2  1  1.50       -46.6121   6.0000                                         
     3  0  0.50        -4.7055   2.0000                                         
     3  1  0.50        -1.3660   0.0000                                         
     3  2  1.50        -1.3606   0.0000                                         
   Description                                                                  
     l       E           TYP  RCUT    TYP  RCUT                                 
     0     -4.7054661     23  2.000                                             
     0     27.2116520     23  2.000                                             
     1      1.3605826     23  2.000                                             
     1     27.2116520     23  2.000                                             
     2     -1.3605826     23  2.000                                             
  local pseudopotential read in
  partial core-charges read in
  partial kinetic energy density read in
  atomic valenz-charges read in
  non local Contribution for L=           0  read in
    real space projection operators read in
  non local Contribution for L=           0  read in
    real space projection operators read in
  non local Contribution for L=           1  read in
    real space projection operators read in
  non local Contribution for L=           1  read in
    real space projection operators read in
  non local Contribution for L=           2  read in
    real space projection operators read in
    PAW grid and wavefunctions read in
 
   number of l-projection  operators is LMAX  =           5
   number of lm-projection operators is LMMAX =          13
 
 POTCAR:    PAW_PBE Al 04Jan2001                  
   VRHFIN =Al: s2p1                                                             
   LEXCH  = PE                                                                  
   EATOM  =    53.5387 eV,    3.9350 Ry                                         
                                                                                
   TITEL  = PAW_PBE Al 04Jan2001                                                
   LULTRA =        F    use ultrasoft PP ?                                      
   IUNSCR =        1    unscreen: 0-lin 1-nonlin 2-no                           
   RPACOR =    1.500    partial core radius                                     
   POMASS =   26.981; ZVAL   =    3.000    mass and valenz                      
   RCORE  =    1.900    outmost cutoff radius                                   
   RWIGS  =    2.650; RWIGS  =    1.402    wigner-seitz radius (au A)           
   ENMAX  =  240.300; ENMIN  =  180.225 eV                                      
   ICORE  =        2    local potential                                         
   LCOR   =        T    correct aug charges                                     
   LPAW   =        T    paw PP                                                  
   EAUG   =  291.052                                                            
   DEXC   =    0.000                                                            
   RMAX   =    1.939    core radius for proj-oper                               
   RAUG   =    1.300    factor for augmentation sphere                          
   RDEP   =    1.966    radius for radial grids                                 
   RDEPT  =    1.856    core radius for aug-charge                              
                                                                                
   Atomic configuration                                                         
    6 entries                                                                   
     n  l   j            E        occ.                                          
     1  0  0.50     -1511.1048   2.0000                                         
     2  0  0.50      -108.1629   2.0000                                         
     2  1  1.50       -69.6402   6.0000                                         
     3  0  0.50        -7.7528   2.0000                                         
     3  1  1.50        -2.7121   1.0000                                         
     3  2  2.50        -2.7212   0.0000                                         
   Description                                                                  
     l       E           TYP  RCUT    TYP  RCUT                                 
     0     -7.7528455     23  1.900                                             
     0     -3.3096929     23  1.900                                             
     1     -2.7120682     23  1.900                                             
     1     13.6058260     23  1.900                                             
     2     -2.7211652      7  1.900                                             
  local pseudopotential read in
  partial core-charges read in
  partial kinetic energy density read in
  atomic valenz-charges read in
  non local Contribution for L=           0  read in
    real space projection operators read in
  non local Contribution for L=           0  read in
    real space projection operators read in
  non local Contribution for L=           1  read in
    real space projection operators read in
  non local Contribution for L=           1  read in
    real space projection operators read in
    PAW grid and wavefunctions read in
 
   number of l-projection  operators is LMAX  =           4
   number of lm-projection operators is LMMAX =           8
 

 ----------------------------------------------------------------------------- 
|                                                                             |
|  ADVICE TO THIS USER RUNNING 'VASP/VAMP'   (HEAR YOUR MASTER'S VOICE ...):  |
|                                                                             |
|      You have a (more or less) 'large supercell' and for larger cells       |
|      it might be more efficient to use real space projection opertators     |
|      So try LREAL= Auto  in the INCAR   file.                               |
|      Mind:          For very  accurate calculation you might also keep the  |
|      reciprocal projection scheme          (i.e. LREAL=.FALSE.)             |
|                                                                             |
 ----------------------------------------------------------------------------- 

  PAW_PBE O 08Apr2002                   :
 energy of atom  1       EATOM= -432.3788
 kinetic energy error for atom=    0.0208 (will be added to EATOM!!)
  PAW_PBE Mg 13Apr2007                  :
 energy of atom  2       EATOM=  -23.0369
 kinetic energy error for atom=    0.0000 (will be added to EATOM!!)
  PAW_PBE Al 04Jan2001                  :
 energy of atom  3       EATOM=  -53.5387
 kinetic energy error for atom=    0.0002 (will be added to EATOM!!)
 
 
 POSCAR: Layer(26)                               
  positions in direct lattice
  velocities in cartesian coordinates
 exchange correlation table for  LEXCH =        8
   RHO(1)=    0.500       N(1)  =     2000
   RHO(2)=  100.500       N(2)  =     4000

 VTST: version 3.2, (02/03/18)

 CHAIN: initializing optimizer
 
 OPT: Using VASP Dynamics algorithm
 CHAIN: Read ICHAIN            0
 
 POSCAR: Layer(26)                               
  positions in direct lattice
  velocities in cartesian coordinates
 


--------------------------------------------------------------------------------------------------------


 ion  position               nearest neighbor table
   1  0.478  0.522  0.448-  22 2.03  22 2.03  14 2.10  14 2.20  14 2.20
   2  0.515  0.485  0.554-  15 2.07  15 2.07  15 2.09  16 2.16  16 2.16  16 2.19
   3  0.527  0.473  0.661-  17 2.07  17 2.07  17 2.09  18 2.16  18 2.16  18 2.20
   4  0.542  0.458  0.766-  19 1.97  19 1.97  19 1.97
   5  0.837  0.163  0.483-  14 2.07  14 2.07  14 2.09  11 2.16  11 2.16  11 2.19
   6  0.176  0.824  0.519-  11 2.07  11 2.07  11 2.09  15 2.16  15 2.16  15 2.19
   7  0.852  0.148  0.590-  16 2.07  16 2.07  16 2.09  12 2.16  12 2.16  12 2.20
   8  0.190  0.810  0.626-  12 2.07  12 2.07  12 2.09  17 2.16  17 2.16  17 2.20
   9  0.865  0.135  0.697-  18 2.07  18 2.07  18 2.09  13 2.16  13 2.16  13 2.20
  10  0.203  0.797  0.732-  13 2.06  13 2.06  13 2.07  19 2.20  19 2.20  19 2.25
  11  0.505  0.495  0.502-   6 2.07   6 2.07   6 2.09   5 2.16   5 2.16   5 2.19  15 3.01  15 3.01
                            14 3.01  14 3.01  14 3.01  15 3.01
  12  0.520  0.480  0.609-   8 2.07   8 2.07   8 2.09   7 2.16   7 2.16   7 2.20  17 3.01  16 3.01
                            16 3.01  16 3.01  17 3.01  17 3.01
  13  0.532  0.468  0.716-  10 2.06  10 2.06  10 2.07   9 2.16   9 2.16   9 2.20  18 3.01  18 3.01
                            18 3.01  19 3.04  19 3.05  19 3.05
  14  0.167  0.833  0.466-   5 2.07   5 2.07   5 2.09   1 2.10   1 2.20   1 2.20  22 2.88  11 3.01
                            11 3.01  11 3.01  22 3.45  22 3.45
  15  0.844  0.156  0.538-   2 2.07   2 2.07   2 2.09   6 2.16   6 2.16   6 2.19  16 3.01  11 3.01
                            11 3.01  11 3.01  16 3.01  16 3.01
  16  0.182  0.818  0.573-   7 2.07   7 2.07   7 2.09   2 2.16   2 2.16   2 2.19  12 3.01  15 3.01
                            15 3.01  15 3.01  12 3.01  12 3.01
  17  0.857  0.143  0.645-   3 2.07   3 2.07   3 2.09   8 2.16   8 2.16   8 2.20  12 3.01  18 3.01
                            12 3.01  12 3.01  18 3.01  18 3.01
  18  0.194  0.806  0.680-   9 2.07   9 2.07   9 2.09   3 2.16   3 2.16   3 2.20  17 3.01  13 3.01
                            17 3.01  17 3.01  13 3.01  13 3.01
  19  0.869  0.131  0.752-   4 1.97   4 1.97   4 1.97  10 2.20  10 2.20  10 2.25  13 3.04  13 3.05
                            13 3.05
  20  0.926  0.074  0.235-  25 2.83  25 2.83  25 2.85
  21  0.947  0.053  0.332-  23 2.80  23 2.80  26 2.81  26 2.81  23 2.82  26 2.85
  22  0.961  0.039  0.428-   1 2.03   1 2.03  24 2.70  24 2.80  24 2.80  14 2.88  14 3.45  14 3.45

  23  0.606  0.394  0.300-  21 2.80  21 2.80  25 2.80  25 2.80  25 2.81  21 2.82
  24  0.645  0.355  0.396-  22 2.70  22 2.80  22 2.80  26 2.80  26 2.80  26 2.87
  25  0.268  0.732  0.268-  23 2.80  23 2.80  23 2.81  20 2.83  20 2.83  20 2.85
  26  0.292  0.708  0.364-  24 2.80  24 2.80  21 2.81  21 2.81  21 2.85  24 2.87
 
  LATTYP: Found a base centered monoclinic cell.
 ALAT       =     5.2328582782
 B/A-ratio  =     0.5683425909
 C/A-ratio  =    13.2634916918
 COS(beta)  =    -0.0797902432
  
  Lattice vectors:
  
 A1 = (  -2.5959741503,   1.5223026026,   0.0216319808)
 A2 = (  -0.0203658138,   3.0093305668,   0.0216319763)
 A3 = (   2.8991083346,  -5.0214023511, -69.1633550357)


Analysis of symmetry for initial positions (statically):
=====================================================================
 Subroutine PRICEL returns:
 Original cell was already a primitive cell.
 

 Routine SETGRP: Setting up the symmetry group for a 
 base centered monoclinic supercell.


 Subroutine GETGRP returns: Found  2 space group operations
 (whereof  2 operations were pure point group operations)
 out of a pool of  4 trial point group operations.


The static configuration has the point symmetry C_1h.


Analysis of symmetry for dynamics (positions and initial velocities):
=====================================================================
 Subroutine PRICEL returns:
 Original cell was already a primitive cell.
 

 Routine SETGRP: Setting up the symmetry group for a 
 base centered monoclinic supercell.


 Subroutine GETGRP returns: Found  2 space group operations
 (whereof  2 operations were pure point group operations)
 out of a pool of  4 trial point group operations.


The dynamic configuration has the point symmetry C_1h.


Analysis of constrained symmetry for selective dynamics:
=====================================================================
 Subroutine PRICEL returns:
 Original cell was already a primitive cell.
 

 Routine SETGRP: Setting up the symmetry group for a 
 base centered monoclinic supercell.


 Subroutine GETGRP returns: Found  2 space group operations
 (whereof  2 operations were pure point group operations)
 out of a pool of  4 trial point group operations.


The constrained configuration has the point symmetry C_1h.


 Subroutine INISYM returns: Found  2 space group operations
 (whereof  2 operations are pure point group operations),
 and found     1 'primitive' translations

 
 
 KPOINTS: K-Spacing Value to Generate K-Mesh: 0.02

Automatic generation of k-mesh.
Space group operators:
 irot       det(A)        alpha          n_x          n_y          n_z        tau_x        tau_y        tau_z
    1     1.000000     0.000000     1.000000     0.000000     0.000000     0.000000     0.000000     0.000000
    2    -1.000000   180.000000     0.866025     0.500000    -0.000000     0.000000     0.000000     0.000000
 
 Subroutine IBZKPT returns following result:
 ===========================================
 
 Found    144 irreducible k-points:
 
 Following reciprocal coordinates:
            Coordinates               Weight
  0.000000  0.000000  0.000000      1.000000
  0.043478 -0.000000 -0.000000      4.000000
  0.086957 -0.000000 -0.000000      4.000000
  0.130435 -0.000000  0.000000      4.000000
  0.173913 -0.000000  0.000000      4.000000
  0.217391 -0.000000  0.000000      4.000000
  0.260870 -0.000000 -0.000000      4.000000
  0.304348 -0.000000  0.000000      4.000000
  0.347826 -0.000000  0.000000      4.000000
  0.391304 -0.000000  0.000000      4.000000
  0.434783 -0.000000  0.000000      4.000000
  0.478261 -0.000000  0.000000      4.000000
  0.043478  0.043478 -0.000000      2.000000
  0.086957  0.043478 -0.000000      4.000000
  0.130435  0.043478 -0.000000      4.000000
  0.173913  0.043478  0.000000      4.000000
  0.217391  0.043478  0.000000      4.000000
  0.260870  0.043478  0.000000      4.000000
  0.304348  0.043478 -0.000000      4.000000
  0.347826  0.043478  0.000000      4.000000
  0.391304  0.043478  0.000000      4.000000
  0.434783  0.043478  0.000000      4.000000
  0.478261  0.043478  0.000000      4.000000
 -0.478261  0.043478 -0.000000      4.000000
 -0.434783  0.043478 -0.000000      4.000000
 -0.391304  0.043478  0.000000      4.000000
 -0.347826  0.043478  0.000000      4.000000
 -0.304348  0.043478 -0.000000      4.000000
 -0.260870  0.043478  0.000000      4.000000
 -0.217391  0.043478 -0.000000      4.000000
 -0.173913  0.043478  0.000000      4.000000
 -0.130435  0.043478 -0.000000      4.000000
 -0.086957  0.043478 -0.000000      4.000000
 -0.043478  0.043478 -0.000000      2.000000
  0.086957  0.086957 -0.000000      2.000000
  0.130435  0.086957 -0.000000      4.000000
  0.173913  0.086957 -0.000000      4.000000
  0.217391  0.086957 -0.000000      4.000000
  0.260870  0.086957 -0.000000      4.000000
  0.304348  0.086957  0.000000      4.000000
  0.347826  0.086957  0.000000      4.000000
  0.391304  0.086957  0.000000      4.000000
  0.434783  0.086957  0.000000      4.000000
  0.478261  0.086957  0.000000      4.000000
 -0.478261  0.086957 -0.000000      4.000000
 -0.434783  0.086957 -0.000000      4.000000
 -0.391304  0.086957 -0.000000      4.000000
 -0.347826  0.086957  0.000000      4.000000
 -0.304348  0.086957 -0.000000      4.000000
 -0.260870  0.086957 -0.000000      4.000000
 -0.217391  0.086957 -0.000000      4.000000
 -0.173913  0.086957 -0.000000      4.000000
 -0.130435  0.086957 -0.000000      4.000000
 -0.086957  0.086957 -0.000000      2.000000
  0.130435  0.130435 -0.000000      2.000000
  0.173913  0.130435 -0.000000      4.000000
  0.217391  0.130435  0.000000      4.000000
  0.260870  0.130435 -0.000000      4.000000
  0.304348  0.130435 -0.000000      4.000000
  0.347826  0.130435 -0.000000      4.000000
  0.391304  0.130435  0.000000      4.000000
  0.434783  0.130435  0.000000      4.000000
  0.478261  0.130435  0.000000      4.000000
 -0.478261  0.130435 -0.000000      4.000000
 -0.434783  0.130435 -0.000000      4.000000
 -0.391304  0.130435 -0.000000      4.000000
 -0.347826  0.130435 -0.000000      4.000000
 -0.304348  0.130435 -0.000000      4.000000
 -0.260870  0.130435 -0.000000      4.000000
 -0.217391  0.130435 -0.000000      4.000000
 -0.173913  0.130435  0.000000      4.000000
 -0.130435  0.130435 -0.000000      2.000000
  0.173913  0.173913 -0.000000      2.000000
  0.217391  0.173913  0.000000      4.000000
  0.260870  0.173913 -0.000000      4.000000
  0.304348  0.173913 -0.000000      4.000000
  0.347826  0.173913 -0.000000      4.000000
  0.391304  0.173913 -0.000000      4.000000
  0.434783  0.173913  0.000000      4.000000
  0.478261  0.173913  0.000000      4.000000
 -0.478261  0.173913  0.000000      4.000000
 -0.434783  0.173913  0.000000      4.000000
 -0.391304  0.173913 -0.000000      4.000000
 -0.347826  0.173913 -0.000000      4.000000
 -0.304348  0.173913 -0.000000      4.000000
 -0.260870  0.173913 -0.000000      4.000000
 -0.217391  0.173913 -0.000000      4.000000
 -0.173913  0.173913 -0.000000      2.000000
  0.217391  0.217391  0.000000      2.000000
  0.260870  0.217391 -0.000000      4.000000
  0.304348  0.217391 -0.000000      4.000000
  0.347826  0.217391 -0.000000      4.000000
  0.391304  0.217391 -0.000000      4.000000
  0.434783  0.217391  0.000000      4.000000
  0.478261  0.217391 -0.000000      4.000000
 -0.478261  0.217391  0.000000      4.000000
 -0.434783  0.217391 -0.000000      4.000000
 -0.391304  0.217391 -0.000000      4.000000
 -0.347826  0.217391 -0.000000      4.000000
 -0.304348  0.217391 -0.000000      4.000000
 -0.260870  0.217391 -0.000000      4.000000
 -0.217391  0.217391 -0.000000      2.000000
  0.260870  0.260870 -0.000000      2.000000
  0.304348  0.260870 -0.000000      4.000000
  0.347826  0.260870 -0.000000      4.000000
  0.391304  0.260870 -0.000000      4.000000
  0.434783  0.260870  0.000000      4.000000
  0.478261  0.260870  0.000000      4.000000
 -0.478261  0.260870 -0.000000      4.000000
 -0.434783  0.260870 -0.000000      4.000000
 -0.391304  0.260870 -0.000000      4.000000
 -0.347826  0.260870 -0.000000      4.000000
 -0.304348  0.260870 -0.000000      4.000000
 -0.260870  0.260870 -0.000000      2.000000
  0.304348  0.304348 -0.000000      2.000000
  0.347826  0.304348 -0.000000      4.000000
  0.391304  0.304348 -0.000000      4.000000
  0.434783  0.304348 -0.000000      4.000000
  0.478261  0.304348 -0.000000      4.000000
 -0.478261  0.304348 -0.000000      4.000000
 -0.434783  0.304348 -0.000000      4.000000
 -0.391304  0.304348 -0.000000      4.000000
 -0.347826  0.304348 -0.000000      4.000000
 -0.304348  0.304348 -0.000000      2.000000
  0.347826  0.347826 -0.000000      2.000000
  0.391304  0.347826 -0.000000      4.000000
  0.434783  0.347826  0.000000      4.000000
  0.478261  0.347826 -0.000000      4.000000
 -0.478261  0.347826 -0.000000      4.000000
 -0.434783  0.347826 -0.000000      4.000000
 -0.391304  0.347826 -0.000000      4.000000
 -0.347826  0.347826 -0.000000      2.000000
  0.391304  0.391304 -0.000000      2.000000
  0.434783  0.391304 -0.000000      4.000000
  0.478261  0.391304 -0.000000      4.000000
 -0.478261  0.391304 -0.000000      4.000000
 -0.434783  0.391304 -0.000000      4.000000
 -0.391304  0.391304 -0.000000      2.000000
  0.434783  0.434783  0.000000      2.000000
  0.478261  0.434783 -0.000000      4.000000
 -0.478261  0.434783  0.000000      4.000000
 -0.434783  0.434783 -0.000000      2.000000
  0.478261  0.478261 -0.000000      2.000000
 -0.478261  0.478261 -0.000000      2.000000
 
 Following cartesian coordinates:
            Coordinates               Weight
  0.000000  0.000000  0.000000      1.000000
  0.016815  0.000113  0.000068      4.000000
  0.033631  0.000227  0.000136      4.000000
  0.050446  0.000340  0.000204      4.000000
  0.067261  0.000453  0.000272      4.000000
  0.084077  0.000567  0.000340      4.000000
  0.100892  0.000680  0.000408      4.000000
  0.117707  0.000793  0.000476      4.000000
  0.134523  0.000906  0.000544      4.000000
  0.151338  0.001020  0.000612      4.000000
  0.168154  0.001133  0.000680      4.000000
  0.184969  0.001246  0.000748      4.000000
  0.025321  0.014619 -0.000000      2.000000
  0.042137  0.014732  0.000068      4.000000
  0.058952  0.014846  0.000136      4.000000
  0.075767  0.014959  0.000204      4.000000
  0.092583  0.015072  0.000272      4.000000
  0.109398  0.015186  0.000340      4.000000
  0.126213  0.015299  0.000408      4.000000
  0.143029  0.015412  0.000476      4.000000
  0.159844  0.015526  0.000544      4.000000
  0.176659  0.015639  0.000612      4.000000
  0.193475  0.015752  0.000680      4.000000
 -0.176463  0.013259 -0.000816      4.000000
 -0.159648  0.013373 -0.000748      4.000000
 -0.142832  0.013486 -0.000680      4.000000
 -0.126017  0.013599 -0.000612      4.000000
 -0.109202  0.013713 -0.000544      4.000000
 -0.092386  0.013826 -0.000476      4.000000
 -0.075571  0.013939 -0.000408      4.000000
 -0.058756  0.014053 -0.000340      4.000000
 -0.041940  0.014166 -0.000272      4.000000
 -0.025125  0.014279 -0.000204      4.000000
 -0.008310  0.014393 -0.000136      2.000000
  0.050642  0.029238 -0.000000      2.000000
  0.067458  0.029352  0.000068      4.000000
  0.084273  0.029465  0.000136      4.000000
  0.101088  0.029578  0.000204      4.000000
  0.117904  0.029692  0.000272      4.000000
  0.134719  0.029805  0.000340      4.000000
  0.151534  0.029918  0.000408      4.000000
  0.168350  0.030032  0.000476      4.000000
  0.185165  0.030145  0.000544      4.000000
  0.201981  0.030258  0.000612      4.000000
 -0.167957  0.027765 -0.000884      4.000000
 -0.151142  0.027879 -0.000816      4.000000
 -0.134327  0.027992 -0.000748      4.000000
 -0.117511  0.028105 -0.000680      4.000000
 -0.100696  0.028219 -0.000612      4.000000
 -0.083881  0.028332 -0.000544      4.000000
 -0.067065  0.028445 -0.000476      4.000000
 -0.050250  0.028559 -0.000408      4.000000
 -0.033434  0.028672 -0.000340      4.000000
 -0.016619  0.028785 -0.000272      2.000000
  0.075963  0.043858 -0.000000      2.000000
  0.092779  0.043971  0.000068      4.000000
  0.109594  0.044084  0.000136      4.000000
  0.126410  0.044197  0.000204      4.000000
  0.143225  0.044311  0.000272      4.000000
  0.160040  0.044424  0.000340      4.000000
  0.176856  0.044537  0.000408      4.000000
  0.193671  0.044651  0.000476      4.000000
  0.210486  0.044764  0.000544      4.000000
 -0.159451  0.042271 -0.000952      4.000000
 -0.142636  0.042385 -0.000884      4.000000
 -0.125821  0.042498 -0.000816      4.000000
 -0.109005  0.042611 -0.000748      4.000000
 -0.092190  0.042724 -0.000680      4.000000
 -0.075375  0.042838 -0.000612      4.000000
 -0.058559  0.042951 -0.000544      4.000000
 -0.041744  0.043064 -0.000476      4.000000
 -0.024929  0.043178 -0.000408      2.000000
  0.101285  0.058477 -0.000000      2.000000
  0.118100  0.058590  0.000068      4.000000
  0.134915  0.058703  0.000136      4.000000
  0.151731  0.058817  0.000204      4.000000
  0.168546  0.058930  0.000272      4.000000
  0.185361  0.059043  0.000340      4.000000
  0.202177  0.059157  0.000408      4.000000
  0.218992  0.059270  0.000476      4.000000
 -0.150946  0.056777 -0.001020      4.000000
 -0.134130  0.056890 -0.000952      4.000000
 -0.117315  0.057004 -0.000884      4.000000
 -0.100500  0.057117 -0.000816      4.000000
 -0.083684  0.057230 -0.000748      4.000000
 -0.066869  0.057344 -0.000680      4.000000
 -0.050054  0.057457 -0.000612      4.000000
 -0.033238  0.057570 -0.000544      2.000000
  0.126606  0.073096 -0.000000      2.000000
  0.143421  0.073209  0.000068      4.000000
  0.160237  0.073323  0.000136      4.000000
  0.177052  0.073436  0.000204      4.000000
  0.193867  0.073549  0.000272      4.000000
  0.210683  0.073662  0.000340      4.000000
  0.227498  0.073776  0.000408      4.000000
 -0.142440  0.071283 -0.001088      4.000000
 -0.125625  0.071396 -0.001020      4.000000
 -0.108809  0.071510 -0.000952      4.000000
 -0.091994  0.071623 -0.000884      4.000000
 -0.075178  0.071736 -0.000816      4.000000
 -0.058363  0.071849 -0.000748      4.000000
 -0.041548  0.071963 -0.000680      2.000000
  0.151927  0.087715 -0.000000      2.000000
  0.168742  0.087828  0.000068      4.000000
  0.185558  0.087942  0.000136      4.000000
  0.202373  0.088055  0.000204      4.000000
  0.219188  0.088168  0.000272      4.000000
  0.236004  0.088282  0.000340      4.000000
 -0.133934  0.085789 -0.001156      4.000000
 -0.117119  0.085902 -0.001088      4.000000
 -0.100303  0.086015 -0.001020      4.000000
 -0.083488  0.086129 -0.000952      4.000000
 -0.066673  0.086242 -0.000884      4.000000
 -0.049857  0.086355 -0.000816      2.000000
  0.177248  0.102334 -0.000000      2.000000
  0.194063  0.102448  0.000068      4.000000
  0.210879  0.102561  0.000136      4.000000
  0.227694  0.102674  0.000204      4.000000
  0.244510  0.102788  0.000272      4.000000
 -0.125428  0.100295 -0.001224      4.000000
 -0.108613  0.100408 -0.001156      4.000000
 -0.091798  0.100521 -0.001088      4.000000
 -0.074982  0.100635 -0.001020      4.000000
 -0.058167  0.100748 -0.000952      2.000000
  0.202569  0.116953 -0.000000      2.000000
  0.219385  0.117067  0.000068      4.000000
  0.236200  0.117180  0.000136      4.000000
  0.253015  0.117293  0.000204      4.000000
 -0.116922  0.114801 -0.001292      4.000000
 -0.100107  0.114914 -0.001224      4.000000
 -0.083292  0.115027 -0.001156      4.000000
 -0.066476  0.115140 -0.001088      2.000000
  0.227890  0.131573 -0.000000      2.000000
  0.244706  0.131686  0.000068      4.000000
  0.261521  0.131799  0.000136      4.000000
 -0.108417  0.129306 -0.001360      4.000000
 -0.091601  0.129420 -0.001292      4.000000
 -0.074786  0.129533 -0.001224      2.000000
  0.253212  0.146192 -0.000000      2.000000
  0.270027  0.146305  0.000068      4.000000
 -0.099911  0.143812 -0.001428      4.000000
 -0.083095  0.143926 -0.001360      2.000000
  0.278533  0.160811 -0.000000      2.000000
 -0.091405  0.158318 -0.001496      2.000000
 
 TETIRR: Found    804 inequivalent tetrahedra from     3174


--------------------------------------------------------------------------------------------------------




 Dimension of arrays:
   k-points           NKPTS =    144   k-points in BZ     NKDIM =    144   number of bands    NBANDS=     65
   number of dos      NEDOS =    301   number of ions     NIONS =     26
   non local maximal  LDIM  =      5   non local SUM 2l+1 LMDIM =     13
   total plane-waves  NPLWV = 311040
   max r-space proj   IRMAX =      1   max aug-charges    IRDMAX= 196726
   dimension x,y,z NGX =    24 NGY =   24 NGZ =  540
   dimension x,y,z NGXF=    48 NGYF=   48 NGZF= 1080
   support grid    NGXF=    96 NGYF=   96 NGZF= 2160
   ions per type =              10   9   7
   NGX,Y,Z   is equivalent  to a cutoff of  13.26, 13.26, 12.99 a.u.
   NGXF,Y,Z  is equivalent  to a cutoff of  26.52, 26.52, 25.98 a.u.

 SYSTEM =  unknown system                          
 POSCAR =  Layer(26)                               

 Startparameter for this run:
   NWRITE =      2    write-flag & timer
   PREC   = accura    normal or accurate (medium, high low for compatibility)
   ISTART =      0    job   : 0-new  1-cont  2-samecut
   ICHARG =      2    charge: 1-file 2-atom 10-const
   ISPIN  =      1    spin polarized calculation?
   LNONCOLLINEAR =      F non collinear calculations
   LSORBIT =      F    spin-orbit coupling
   INIWAV =      1    electr: 0-lowe 1-rand  2-diag
   LASPH  =      F    aspherical Exc in radial PAW
   METAGGA=      F    non-selfconsistent MetaGGA calc.

 Electronic Relaxation 1
   ENCUT  =  520.0 eV  38.22 Ry    6.18 a.u.   5.60  5.60128.52*2*pi/ulx,y,z
   ENINI  =  520.0     initial cutoff
   ENAUG  =  605.4 eV  augmentation charge cutoff
   NELM   =    100;   NELMIN=  6; NELMDL=  0     # of ELM steps 
   EDIFF  = 0.1E-04   stopping-criterion for ELM
   LREAL  =      F    real-space projection
   NLSPLINE    = F    spline interpolate recip. space projectors
   LCOMPAT=      F    compatible to vasp.4.4
   GGA_COMPAT  = T    GGA compatible to vasp.4.4-vasp.4.6
   LMAXPAW     = -100 max onsite density
   LMAXMIX     =    2 max onsite mixed and CHGCAR
   VOSKOWN=      0    Vosko Wilk Nusair interpolation
   ROPT   =    0.00000   0.00000   0.00000
 Ionic relaxation
   EDIFFG = -.2E-01   stopping-criterion for IOM
   NSW    =      0    number of steps for IOM
   NBLOCK =      1;   KBLOCK =      1    inner block; outer block 
   IBRION =     -1    ionic relax: 0-MD 1-quasi-New 2-CG
   NFREE  =      0    steps in history (QN), initial steepest desc. (CG)
   ISIF   =      4    stress and relaxation
   IWAVPR =     10    prediction:  0-non 1-charg 2-wave 3-comb
   ISYM   =      2    0-nonsym 1-usesym 2-fastsym
   LCORR  =      T    Harris-Foulkes like correction to forces

   POTIM  = 0.5000    time-step for ionic-motion
   TEIN   =    0.0    initial temperature
   TEBEG  =    0.0;   TEEND  =   0.0 temperature during run
   SMASS  =  -3.00    Nose mass-parameter (am)
   estimated Nose-frequenzy (Omega)   =  0.10E-29 period in steps =****** mass=  -0.207E-27a.u.
   SCALEE = 1.0000    scale energy and forces
   NPACO  =    256;   APACO  = 16.0  distance and # of slots for P.C.
   PSTRESS=    0.0 pullay stress

  Mass of Ions in am
   POMASS =  16.00 24.30 26.98
  Ionic Valenz
   ZVAL   =   6.00  2.00  3.00
  Atomic Wigner-Seitz radii
   RWIGS  =  -1.00 -1.00 -1.00
  virtual crystal weights 
   VCA    =   1.00  1.00  1.00
   NELECT =      99.0000    total number of electrons
   NUPDOWN=      -1.0000    fix difference up-down

 DOS related values:
   EMIN   =  10.00;   EMAX   =-10.00  energy-range for DOS
   EFERMI =   0.00
   ISMEAR =    -5;   SIGMA  =   0.05  broadening in eV -4-tet -1-fermi 0-gaus

 Electronic relaxation 2 (details)
   IALGO  =     38    algorithm
   LDIAG  =      T    sub-space diagonalisation (order eigenvalues)
   LSUBROT=      F    optimize rotation matrix (better conditioning)
   TURBO    =      0    0=normal 1=particle mesh
   IRESTART =      0    0=no restart 2=restart with 2 vectors
   NREBOOT  =      0    no. of reboots
   NMIN     =      0    reboot dimension
   EREF     =   0.00    reference energy to select bands
   IMIX   =      4    mixing-type and parameters
     AMIX     =   0.40;   BMIX     =  1.00
     AMIX_MAG =   1.60;   BMIX_MAG =  1.00
     AMIN     =   0.01
     WC   =   100.;   INIMIX=   1;  MIXPRE=   1;  MAXMIX= -45

 Intra band minimization:
   WEIMIN = 0.0000     energy-eigenvalue tresh-hold
   EBREAK =  0.38E-07  absolut break condition
   DEPER  =   0.30     relativ break condition  

   TIME   =   0.40     timestep for ELM

  volume/ion in A,a.u.               =      20.68       139.59
  Fermi-wavevector in a.u.,A,eV,Ry     =   0.931280  1.759865 11.800105  0.867283
  Thomas-Fermi vector in A             =   2.057757
 
 Write flags
   LWAVE        =      F    write WAVECAR
   LDOWNSAMPLE  =      F    k-point downsampling of WAVECAR
   LCHARG       =      T    write CHGCAR
   LVTOT        =      F    write LOCPOT, total local potential
   LVHAR        =      F    write LOCPOT, Hartree potential only
   LELF         =      F    write electronic localiz. function (ELF)
   LORBIT       =      0    0 simple, 1 ext, 2 COOP (PROOUT), +10 PAW based schemes


 Dipole corrections
   LMONO  =      F    monopole corrections only (constant potential shift)
   LDIPOL =      F    correct potential (dipole corrections)
   IDIPOL =      0    1-x, 2-y, 3-z, 4-all directions 
   EPSILON=  1.0000000 bulk dielectric constant

 Exchange correlation treatment:
   GGA     =    --    GGA type
   LEXCH   =     8    internal setting for exchange type
   VOSKOWN=      0    Vosko Wilk Nusair interpolation
   LHFCALC =     F    Hartree Fock is set to
   LHFONE  =     F    Hartree Fock one center treatment
   AEXX    =    0.0000 exact exchange contribution

 Linear response parameters
   LEPSILON=     F    determine dielectric tensor
   LRPA    =     F    only Hartree local field effects (RPA)
   LNABLA  =     F    use nabla operator in PAW spheres
   LVEL    =     F    velocity operator in full k-point grid
   LINTERFAST=   F  fast interpolation
   KINTER  =     0    interpolate to denser k-point grid
   CSHIFT  =0.1000    complex shift for real part using Kramers Kronig
   OMEGAMAX=  -1.0    maximum frequency
   DEG_THRESHOLD= 0.2000000E-02 threshold for treating states as degnerate
   RTIME   =   -0.100 relaxation time in fs
  (WPLASMAI=    0.000 imaginary part of plasma frequency in eV, 0.658/RTIME)
   DFIELD  = 0.0000000 0.0000000 0.0000000 field for delta impulse in time
 
 Orbital magnetization related:
   ORBITALMAG=     F  switch on orbital magnetization
   LCHIMAG   =     F  perturbation theory with respect to B field
   DQ        =  0.001000  dq finite difference perturbation B field
   LLRAUG    =     F  two centre corrections for induced B field



--------------------------------------------------------------------------------------------------------


 Static calculation
 charge density and potential will be updated during run
 non-spin polarized calculation
 Variant of blocked Davidson
 Davidson routine will perform the subspace rotation
 perform sub-space diagonalisation
    after iterative eigenvector-optimisation
 modified Broyden-mixing scheme, WC =      100.0
 initial mixing is a Kerker type mixing with AMIX =  0.4000 and BMIX =      1.0000
 Hartree-type preconditioning will be used
 using additional bands           15
 reciprocal scheme for non local part
 use partial core corrections
 calculate Harris-corrections to forces 
   (improved forces if not selfconsistent)
 use gradient corrections 
 use of overlap-Matrix (Vanderbilt PP)
 Fermi weights with tetrahedron method with Bloechl corrections


--------------------------------------------------------------------------------------------------------


  energy-cutoff  :      520.00
  volume of cell :      537.80
      direct lattice vectors                 reciprocal lattice vectors
     2.595974150 -1.522302603 -0.021631981     0.386753138  0.002606133  0.001563730
    -0.020365814  3.009330567  0.021631976     0.195633548  0.333635020 -0.001563730
    -0.282768370  0.489769182 69.120091079     0.000059813 -0.000103600  0.014468552

  length of vectors
     3.009477520  3.009477225 69.122404635     0.386765080  0.386765118  0.014469047


 
 k-points in units of 2pi/SCALE and weight: K-Spacing Value to Generate K-Mesh: 0.02
   0.00000000  0.00000000  0.00000000       0.002
   0.01681535  0.00011331  0.00006799       0.008
   0.03363071  0.00022662  0.00013598       0.008
   0.05044606  0.00033993  0.00020396       0.008
   0.06726142  0.00045324  0.00027195       0.008
   0.08407677  0.00056655  0.00033994       0.008
   0.10089212  0.00067986  0.00040793       0.008
   0.11770748  0.00079317  0.00047592       0.008
   0.13452283  0.00090648  0.00054391       0.008
   0.15133818  0.00101979  0.00061189       0.008
   0.16815354  0.00113310  0.00067988       0.008
   0.18496889  0.00124641  0.00074787       0.008
   0.02532116  0.01461918 -0.00000000       0.004
   0.04213651  0.01473249  0.00006799       0.008
   0.05895187  0.01484580  0.00013598       0.008
   0.07576722  0.01495911  0.00020396       0.008
   0.09258258  0.01507242  0.00027195       0.008
   0.10939793  0.01518573  0.00033994       0.008
   0.12621328  0.01529904  0.00040793       0.008
   0.14302864  0.01541235  0.00047592       0.008
   0.15984399  0.01552566  0.00054391       0.008
   0.17665934  0.01563897  0.00061189       0.008
   0.19347470  0.01575228  0.00067988       0.008
  -0.17646309  0.01325946 -0.00081586       0.008
  -0.15964773  0.01337277 -0.00074787       0.008
  -0.14283238  0.01348608 -0.00067988       0.008
  -0.12601702  0.01359939 -0.00061189       0.008
  -0.10920167  0.01371270 -0.00054391       0.008
  -0.09238632  0.01382601 -0.00047592       0.008
  -0.07557096  0.01393932 -0.00040793       0.008
  -0.05875561  0.01405263 -0.00033994       0.008
  -0.04194026  0.01416594 -0.00027195       0.008
  -0.02512490  0.01427925 -0.00020396       0.008
  -0.00830955  0.01439256 -0.00013598       0.004
   0.05064232  0.02923836 -0.00000000       0.004
   0.06745767  0.02935167  0.00006799       0.008
   0.08427303  0.02946498  0.00013598       0.008
   0.10108838  0.02957829  0.00020396       0.008
   0.11790374  0.02969160  0.00027195       0.008
   0.13471909  0.02980491  0.00033994       0.008
   0.15153444  0.02991822  0.00040793       0.008
   0.16834980  0.03003153  0.00047592       0.008
   0.18516515  0.03014484  0.00054391       0.008
   0.20198051  0.03025815  0.00061189       0.008
  -0.16795728  0.02776533 -0.00088385       0.008
  -0.15114193  0.02787864 -0.00081586       0.008
  -0.13432657  0.02799195 -0.00074787       0.008
  -0.11751122  0.02810526 -0.00067988       0.008
  -0.10069586  0.02821857 -0.00061189       0.008
  -0.08388051  0.02833188 -0.00054391       0.008
  -0.06706516  0.02844519 -0.00047592       0.008
  -0.05024980  0.02855850 -0.00040793       0.008
  -0.03343445  0.02867181 -0.00033994       0.008
  -0.01661909  0.02878512 -0.00027195       0.004
   0.07596348  0.04385754 -0.00000000       0.004
   0.09277883  0.04397085  0.00006799       0.008
   0.10959419  0.04408416  0.00013598       0.008
   0.12640954  0.04419747  0.00020396       0.008
   0.14322490  0.04431078  0.00027195       0.008
   0.16004025  0.04442409  0.00033994       0.008
   0.17685560  0.04453740  0.00040793       0.008
   0.19367096  0.04465071  0.00047592       0.008
   0.21048631  0.04476402  0.00054391       0.008
  -0.15945147  0.04227120 -0.00095184       0.008
  -0.14263612  0.04238451 -0.00088385       0.008
  -0.12582077  0.04249782 -0.00081586       0.008
  -0.10900541  0.04261113 -0.00074787       0.008
  -0.09219006  0.04272444 -0.00067988       0.008
  -0.07537470  0.04283775 -0.00061189       0.008
  -0.05855935  0.04295106 -0.00054391       0.008
  -0.04174400  0.04306437 -0.00047592       0.008
  -0.02492864  0.04317768 -0.00040793       0.004
   0.10128464  0.05847672 -0.00000000       0.004
   0.11809999  0.05859003  0.00006799       0.008
   0.13491535  0.05870334  0.00013598       0.008
   0.15173070  0.05881665  0.00020396       0.008
   0.16854606  0.05892996  0.00027195       0.008
   0.18536141  0.05904327  0.00033994       0.008
   0.20217676  0.05915658  0.00040793       0.008
   0.21899212  0.05926989  0.00047592       0.008
  -0.15094567  0.05677707 -0.00101982       0.008
  -0.13413031  0.05689038 -0.00095184       0.008
  -0.11731496  0.05700369 -0.00088385       0.008
  -0.10049961  0.05711700 -0.00081586       0.008
  -0.08368425  0.05723031 -0.00074787       0.008
  -0.06686890  0.05734362 -0.00067988       0.008
  -0.05005354  0.05745693 -0.00061189       0.008
  -0.03323819  0.05757024 -0.00054391       0.004
   0.12660580  0.07309590 -0.00000000       0.004
   0.14342116  0.07320921  0.00006799       0.008
   0.16023651  0.07332252  0.00013598       0.008
   0.17705186  0.07343583  0.00020396       0.008
   0.19386722  0.07354914  0.00027195       0.008
   0.21068257  0.07366245  0.00033994       0.008
   0.22749792  0.07377576  0.00040793       0.008
  -0.14243986  0.07128294 -0.00108781       0.008
  -0.12562451  0.07139625 -0.00101982       0.008
  -0.10880915  0.07150956 -0.00095184       0.008
  -0.09199380  0.07162287 -0.00088385       0.008
  -0.07517844  0.07173618 -0.00081586       0.008
  -0.05836309  0.07184949 -0.00074787       0.008
  -0.04154774  0.07196280 -0.00067988       0.004
   0.15192696  0.08771508 -0.00000000       0.004
   0.16874232  0.08782839  0.00006799       0.008
   0.18555767  0.08794170  0.00013598       0.008
   0.20237302  0.08805501  0.00020396       0.008
   0.21918838  0.08816832  0.00027195       0.008
   0.23600373  0.08828163  0.00033994       0.008
  -0.13393405  0.08578881 -0.00115580       0.008
  -0.11711870  0.08590212 -0.00108781       0.008
  -0.10030335  0.08601543 -0.00101982       0.008
  -0.08348799  0.08612874 -0.00095184       0.008
  -0.06667264  0.08624205 -0.00088385       0.008
  -0.04985728  0.08635536 -0.00081586       0.004
   0.17724812  0.10233426 -0.00000000       0.004
   0.19406348  0.10244757  0.00006799       0.008
   0.21087883  0.10256088  0.00013598       0.008
   0.22769418  0.10267419  0.00020396       0.008
   0.24450954  0.10278750  0.00027195       0.008
  -0.12542825  0.10029468 -0.00122379       0.008
  -0.10861289  0.10040799 -0.00115580       0.008
  -0.09179754  0.10052130 -0.00108781       0.008
  -0.07498219  0.10063461 -0.00101982       0.008
  -0.05816683  0.10074792 -0.00095184       0.004
   0.20256928  0.11695344 -0.00000000       0.004
   0.21938464  0.11706675  0.00006799       0.008
   0.23619999  0.11718006  0.00013598       0.008
   0.25301534  0.11729337  0.00020396       0.008
  -0.11692244  0.11480055 -0.00129178       0.008
  -0.10010709  0.11491386 -0.00122379       0.008
  -0.08329173  0.11502717 -0.00115580       0.008
  -0.06647638  0.11514048 -0.00108781       0.004
   0.22789044  0.13157262 -0.00000000       0.004
   0.24470580  0.13168594  0.00006799       0.008
   0.26152115  0.13179925  0.00013598       0.008
  -0.10841663  0.12930642 -0.00135977       0.008
  -0.09160128  0.12941973 -0.00129178       0.008
  -0.07478593  0.12953304 -0.00122379       0.004
   0.25321160  0.14619181 -0.00000000       0.004
   0.27002696  0.14630512  0.00006799       0.008
  -0.09991083  0.14381229 -0.00142775       0.008
  -0.08309547  0.14392560 -0.00135977       0.004
   0.27853276  0.16081099 -0.00000000       0.004
  -0.09140502  0.15831816 -0.00149574       0.004
 
 k-points in reciprocal lattice and weights: K-Spacing Value to Generate K-Mesh: 0.02
   0.00000000  0.00000000  0.00000000       0.002
   0.04347826 -0.00000000 -0.00000000       0.008
   0.08695652 -0.00000000 -0.00000000       0.008
   0.13043478 -0.00000000  0.00000000       0.008
   0.17391304 -0.00000000  0.00000000       0.008
   0.21739130 -0.00000000  0.00000000       0.008
   0.26086957 -0.00000000 -0.00000000       0.008
   0.30434783 -0.00000000  0.00000000       0.008
   0.34782609 -0.00000000  0.00000000       0.008
   0.39130435 -0.00000000  0.00000000       0.008
   0.43478261 -0.00000000  0.00000000       0.008
   0.47826087 -0.00000000  0.00000000       0.008
   0.04347826  0.04347826 -0.00000000       0.004
   0.08695652  0.04347826 -0.00000000       0.008
   0.13043478  0.04347826 -0.00000000       0.008
   0.17391304  0.04347826  0.00000000       0.008
   0.21739130  0.04347826  0.00000000       0.008
   0.26086957  0.04347826  0.00000000       0.008
   0.30434783  0.04347826 -0.00000000       0.008
   0.34782609  0.04347826  0.00000000       0.008
   0.39130435  0.04347826  0.00000000       0.008
   0.43478261  0.04347826  0.00000000       0.008
   0.47826087  0.04347826  0.00000000       0.008
  -0.47826087  0.04347826 -0.00000000       0.008
  -0.43478261  0.04347826 -0.00000000       0.008
  -0.39130435  0.04347826  0.00000000       0.008
  -0.34782609  0.04347826  0.00000000       0.008
  -0.30434783  0.04347826 -0.00000000       0.008
  -0.26086957  0.04347826  0.00000000       0.008
  -0.21739130  0.04347826 -0.00000000       0.008
  -0.17391304  0.04347826  0.00000000       0.008
  -0.13043478  0.04347826 -0.00000000       0.008
  -0.08695652  0.04347826 -0.00000000       0.008
  -0.04347826  0.04347826 -0.00000000       0.004
   0.08695652  0.08695652 -0.00000000       0.004
   0.13043478  0.08695652 -0.00000000       0.008
   0.17391304  0.08695652 -0.00000000       0.008
   0.21739130  0.08695652 -0.00000000       0.008
   0.26086957  0.08695652 -0.00000000       0.008
   0.30434783  0.08695652  0.00000000       0.008
   0.34782609  0.08695652  0.00000000       0.008
   0.39130435  0.08695652  0.00000000       0.008
   0.43478261  0.08695652  0.00000000       0.008
   0.47826087  0.08695652  0.00000000       0.008
  -0.47826087  0.08695652 -0.00000000       0.008
  -0.43478261  0.08695652 -0.00000000       0.008
  -0.39130435  0.08695652 -0.00000000       0.008
  -0.34782609  0.08695652  0.00000000       0.008
  -0.30434783  0.08695652 -0.00000000       0.008
  -0.26086957  0.08695652 -0.00000000       0.008
  -0.21739130  0.08695652 -0.00000000       0.008
  -0.17391304  0.08695652 -0.00000000       0.008
  -0.13043478  0.08695652 -0.00000000       0.008
  -0.08695652  0.08695652 -0.00000000       0.004
   0.13043478  0.13043478 -0.00000000       0.004
   0.17391304  0.13043478 -0.00000000       0.008
   0.21739130  0.13043478  0.00000000       0.008
   0.26086957  0.13043478 -0.00000000       0.008
   0.30434783  0.13043478 -0.00000000       0.008
   0.34782609  0.13043478 -0.00000000       0.008
   0.39130435  0.13043478  0.00000000       0.008
   0.43478261  0.13043478  0.00000000       0.008
   0.47826087  0.13043478  0.00000000       0.008
  -0.47826087  0.13043478 -0.00000000       0.008
  -0.43478261  0.13043478 -0.00000000       0.008
  -0.39130435  0.13043478 -0.00000000       0.008
  -0.34782609  0.13043478 -0.00000000       0.008
  -0.30434783  0.13043478 -0.00000000       0.008
  -0.26086957  0.13043478 -0.00000000       0.008
  -0.21739130  0.13043478 -0.00000000       0.008
  -0.17391304  0.13043478  0.00000000       0.008
  -0.13043478  0.13043478 -0.00000000       0.004
   0.17391304  0.17391304 -0.00000000       0.004
   0.21739130  0.17391304  0.00000000       0.008
   0.26086957  0.17391304 -0.00000000       0.008
   0.30434783  0.17391304 -0.00000000       0.008
   0.34782609  0.17391304 -0.00000000       0.008
   0.39130435  0.17391304 -0.00000000       0.008
   0.43478261  0.17391304  0.00000000       0.008
   0.47826087  0.17391304  0.00000000       0.008
  -0.47826087  0.17391304  0.00000000       0.008
  -0.43478261  0.17391304  0.00000000       0.008
  -0.39130435  0.17391304 -0.00000000       0.008
  -0.34782609  0.17391304 -0.00000000       0.008
  -0.30434783  0.17391304 -0.00000000       0.008
  -0.26086957  0.17391304 -0.00000000       0.008
  -0.21739130  0.17391304 -0.00000000       0.008
  -0.17391304  0.17391304 -0.00000000       0.004
   0.21739130  0.21739130  0.00000000       0.004
   0.26086957  0.21739130 -0.00000000       0.008
   0.30434783  0.21739130 -0.00000000       0.008
   0.34782609  0.21739130 -0.00000000       0.008
   0.39130435  0.21739130 -0.00000000       0.008
   0.43478261  0.21739130  0.00000000       0.008
   0.47826087  0.21739130 -0.00000000       0.008
  -0.47826087  0.21739130  0.00000000       0.008
  -0.43478261  0.21739130 -0.00000000       0.008
  -0.39130435  0.21739130 -0.00000000       0.008
  -0.34782609  0.21739130 -0.00000000       0.008
  -0.30434783  0.21739130 -0.00000000       0.008
  -0.26086957  0.21739130 -0.00000000       0.008
  -0.21739130  0.21739130 -0.00000000       0.004
   0.26086957  0.26086957 -0.00000000       0.004
   0.30434783  0.26086957 -0.00000000       0.008
   0.34782609  0.26086957 -0.00000000       0.008
   0.39130435  0.26086957 -0.00000000       0.008
   0.43478261  0.26086957  0.00000000       0.008
   0.47826087  0.26086957  0.00000000       0.008
  -0.47826087  0.26086957 -0.00000000       0.008
  -0.43478261  0.26086957 -0.00000000       0.008
  -0.39130435  0.26086957 -0.00000000       0.008
  -0.34782609  0.26086957 -0.00000000       0.008
  -0.30434783  0.26086957 -0.00000000       0.008
  -0.26086957  0.26086957 -0.00000000       0.004
   0.30434783  0.30434783 -0.00000000       0.004
   0.34782609  0.30434783 -0.00000000       0.008
   0.39130435  0.30434783 -0.00000000       0.008
   0.43478261  0.30434783 -0.00000000       0.008
   0.47826087  0.30434783 -0.00000000       0.008
  -0.47826087  0.30434783 -0.00000000       0.008
  -0.43478261  0.30434783 -0.00000000       0.008
  -0.39130435  0.30434783 -0.00000000       0.008
  -0.34782609  0.30434783 -0.00000000       0.008
  -0.30434783  0.30434783 -0.00000000       0.004
   0.34782609  0.34782609 -0.00000000       0.004
   0.39130435  0.34782609 -0.00000000       0.008
   0.43478261  0.34782609  0.00000000       0.008
   0.47826087  0.34782609 -0.00000000       0.008
  -0.47826087  0.34782609 -0.00000000       0.008
  -0.43478261  0.34782609 -0.00000000       0.008
  -0.39130435  0.34782609 -0.00000000       0.008
  -0.34782609  0.34782609 -0.00000000       0.004
   0.39130435  0.39130435 -0.00000000       0.004
   0.43478261  0.39130435 -0.00000000       0.008
   0.47826087  0.39130435 -0.00000000       0.008
  -0.47826087  0.39130435 -0.00000000       0.008
  -0.43478261  0.39130435 -0.00000000       0.008
  -0.39130435  0.39130435 -0.00000000       0.004
   0.43478261  0.43478261  0.00000000       0.004
   0.47826087  0.43478261 -0.00000000       0.008
  -0.47826087  0.43478261  0.00000000       0.008
  -0.43478261  0.43478261 -0.00000000       0.004
   0.47826087  0.47826087 -0.00000000       0.004
  -0.47826087  0.47826087 -0.00000000       0.004
 
 position of ions in fractional coordinates (direct lattice) 
   0.47847998  0.52152002  0.44755986
   0.51461326  0.48538674  0.55436117
   0.52726879  0.47273121  0.66128655
   0.54152038  0.45847962  0.76582002
   0.83651758  0.16348242  0.48309089
   0.17603842  0.82396158  0.51873182
   0.85248769  0.14751231  0.59000884
   0.18998984  0.81001016  0.62564537
   0.86464750  0.13535250  0.69688827
   0.20252516  0.79747484  0.73218680
   0.50540338  0.49459662  0.50204641
   0.51979344  0.48020656  0.60894489
   0.53177792  0.46822208  0.71591635
   0.16695451  0.83304549  0.46642340
   0.84416557  0.15583443  0.53766803
   0.18217540  0.81782460  0.57330418
   0.85708588  0.14291412  0.64458581
   0.19437884  0.80562116  0.68023563
   0.86891050  0.13108950  0.75222289
   0.92636177  0.07363823  0.23524977
   0.94714862  0.05285138  0.33177673
   0.96109029  0.03890971  0.42756793
   0.60610503  0.39389497  0.29974956
   0.64457279  0.35542721  0.39638573
   0.26780630  0.73219370  0.26779631
   0.29218116  0.70781884  0.36407478
 
 position of ions in cartesian coordinates  (Angst):
   1.10494472  1.06023582 30.93630905
   1.16928161  0.94880108 38.31686253
   1.17215767  0.94381961 45.70700674
   1.17988591  0.93043391 52.93175350
   2.03164575 -0.54485724 33.37672695
   0.29352959  2.46564788 35.86880659
   2.04319596 -0.56486278 40.76621476
   0.29979947  2.45478814 43.25807737
   2.04478804 -0.56762034 48.15320487
   0.30246960  2.45016335 50.62168845
   1.15997839  0.96491472 34.70125958
   1.16740019  0.95205980 42.08946996
   1.16850751  0.95014187 49.48282843
   0.28455415  2.48119380 32.25363687
   2.03622278 -0.55278488 37.14877300
   0.29415467  2.46456521 39.64058749
   2.03979376 -0.55897000 44.53838067
   0.29584618  2.46163544 47.03117116
   2.04029460 -0.55983747 51.97775413
   2.33679032 -1.07338308 16.24203945
   2.36388100 -1.12030550 22.91309246
   2.37327044 -1.13656849 29.53358577
   1.48065131  0.40949300 20.71412656
   1.55397039  0.28250065 27.39196323
   0.60458220  1.92688901 18.52015100
   0.64113060  1.86358535 25.17387292
 


--------------------------------------------------------------------------------------------------------


 k-point  1 :   0.0000 0.0000 0.0000  plane waves:   14675
 k-point  2 :   0.0435-0.0000-0.0000  plane waves:   14667
 k-point  3 :   0.0870-0.0000-0.0000  plane waves:   14649
 k-point  4 :   0.1304-0.0000 0.0000  plane waves:   14631
 k-point  5 :   0.1739-0.0000 0.0000  plane waves:   14591
 k-point  6 :   0.2174-0.0000 0.0000  plane waves:   14555
 k-point  7 :   0.2609-0.0000-0.0000  plane waves:   14504
 k-point  8 :   0.3043-0.0000 0.0000  plane waves:   14489
 k-point  9 :   0.3478-0.0000 0.0000  plane waves:   14460
 k-point 10 :   0.3913-0.0000 0.0000  plane waves:   14423
 k-point 11 :   0.4348-0.0000 0.0000  plane waves:   14413
 k-point 12 :   0.4783-0.0000 0.0000  plane waves:   14380
 k-point 13 :   0.0435 0.0435-0.0000  plane waves:   14665
 k-point 14 :   0.0870 0.0435-0.0000  plane waves:   14643
 k-point 15 :   0.1304 0.0435-0.0000  plane waves:   14603
 k-point 16 :   0.1739 0.0435 0.0000  plane waves:   14562
 k-point 17 :   0.2174 0.0435 0.0000  plane waves:   14522
 k-point 18 :   0.2609 0.0435 0.0000  plane waves:   14469
 k-point 19 :   0.3043 0.0435-0.0000  plane waves:   14450
 k-point 20 :   0.3478 0.0435 0.0000  plane waves:   14448
 k-point 21 :   0.3913 0.0435 0.0000  plane waves:   14416
 k-point 22 :   0.4348 0.0435 0.0000  plane waves:   14383
 k-point 23 :   0.4783 0.0435 0.0000  plane waves:   14358
 k-point 24 :  -0.4783 0.0435-0.0000  plane waves:   14399
 k-point 25 :  -0.4348 0.0435-0.0000  plane waves:   14422
 k-point 26 :  -0.3913 0.0435 0.0000  plane waves:   14438
 k-point 27 :  -0.3478 0.0435 0.0000  plane waves:   14501
 k-point 28 :  -0.3043 0.0435-0.0000  plane waves:   14525
 k-point 29 :  -0.2609 0.0435 0.0000  plane waves:   14533
 k-point 30 :  -0.2174 0.0435-0.0000  plane waves:   14570
 k-point 31 :  -0.1739 0.0435 0.0000  plane waves:   14607
 k-point 32 :  -0.1304 0.0435-0.0000  plane waves:   14640
 k-point 33 :  -0.0870 0.0435-0.0000  plane waves:   14659
 k-point 34 :  -0.0435 0.0435-0.0000  plane waves:   14671
 k-point 35 :   0.0870 0.0870-0.0000  plane waves:   14607
 k-point 36 :   0.1304 0.0870-0.0000  plane waves:   14571
 k-point 37 :   0.1739 0.0870-0.0000  plane waves:   14524
 k-point 38 :   0.2174 0.0870-0.0000  plane waves:   14481
 k-point 39 :   0.2609 0.0870-0.0000  plane waves:   14481
 k-point 40 :   0.3043 0.0870 0.0000  plane waves:   14460
 k-point 41 :   0.3478 0.0870 0.0000  plane waves:   14436
 k-point 42 :   0.3913 0.0870 0.0000  plane waves:   14370
 k-point 43 :   0.4348 0.0870 0.0000  plane waves:   14347
 k-point 44 :   0.4783 0.0870 0.0000  plane waves:   14386
 k-point 45 :  -0.4783 0.0870-0.0000  plane waves:   14419
 k-point 46 :  -0.4348 0.0870-0.0000  plane waves:   14442
 k-point 47 :  -0.3913 0.0870-0.0000  plane waves:   14464
 k-point 48 :  -0.3478 0.0870 0.0000  plane waves:   14514
 k-point 49 :  -0.3043 0.0870-0.0000  plane waves:   14535
 k-point 50 :  -0.2609 0.0870-0.0000  plane waves:   14578
 k-point 51 :  -0.2174 0.0870-0.0000  plane waves:   14606
 k-point 52 :  -0.1739 0.0870-0.0000  plane waves:   14623
 k-point 53 :  -0.1304 0.0870-0.0000  plane waves:   14644
 k-point 54 :  -0.0870 0.0870-0.0000  plane waves:   14651
 k-point 55 :   0.1304 0.1304-0.0000  plane waves:   14511
 k-point 56 :   0.1739 0.1304-0.0000  plane waves:   14510
 k-point 57 :   0.2174 0.1304 0.0000  plane waves:   14492
 k-point 58 :   0.2609 0.1304-0.0000  plane waves:   14470
 k-point 59 :   0.3043 0.1304-0.0000  plane waves:   14427
 k-point 60 :   0.3478 0.1304-0.0000  plane waves:   14392
 k-point 61 :   0.3913 0.1304 0.0000  plane waves:   14348
 k-point 62 :   0.4348 0.1304 0.0000  plane waves:   14373
 k-point 63 :   0.4783 0.1304 0.0000  plane waves:   14403
 k-point 64 :  -0.4783 0.1304-0.0000  plane waves:   14448
 k-point 65 :  -0.4348 0.1304-0.0000  plane waves:   14478
 k-point 66 :  -0.3913 0.1304-0.0000  plane waves:   14487
 k-point 67 :  -0.3478 0.1304-0.0000  plane waves:   14513
 k-point 68 :  -0.3043 0.1304-0.0000  plane waves:   14540
 k-point 69 :  -0.2609 0.1304-0.0000  plane waves:   14579
 k-point 70 :  -0.2174 0.1304-0.0000  plane waves:   14618
 k-point 71 :  -0.1739 0.1304 0.0000  plane waves:   14643
 k-point 72 :  -0.1304 0.1304-0.0000  plane waves:   14631
 k-point 73 :   0.1739 0.1739-0.0000  plane waves:   14483
 k-point 74 :   0.2174 0.1739 0.0000  plane waves:   14458
 k-point 75 :   0.2609 0.1739-0.0000  plane waves:   14442
 k-point 76 :   0.3043 0.1739-0.0000  plane waves:   14415
 k-point 77 :   0.3478 0.1739-0.0000  plane waves:   14377
 k-point 78 :   0.3913 0.1739-0.0000  plane waves:   14371
 k-point 79 :   0.4348 0.1739 0.0000  plane waves:   14393
 k-point 80 :   0.4783 0.1739 0.0000  plane waves:   14421
 k-point 81 :  -0.4783 0.1739 0.0000  plane waves:   14454
 k-point 82 :  -0.4348 0.1739 0.0000  plane waves:   14482
 k-point 83 :  -0.3913 0.1739-0.0000  plane waves:   14490
 k-point 84 :  -0.3478 0.1739-0.0000  plane waves:   14497
 k-point 85 :  -0.3043 0.1739-0.0000  plane waves:   14542
 k-point 86 :  -0.2609 0.1739-0.0000  plane waves:   14584
 k-point 87 :  -0.2174 0.1739-0.0000  plane waves:   14624
 k-point 88 :  -0.1739 0.1739-0.0000  plane waves:   14634
 k-point 89 :   0.2174 0.2174 0.0000  plane waves:   14439
 k-point 90 :   0.2609 0.2174-0.0000  plane waves:   14426
 k-point 91 :   0.3043 0.2174-0.0000  plane waves:   14392
 k-point 92 :   0.3478 0.2174-0.0000  plane waves:   14390
 k-point 93 :   0.3913 0.2174-0.0000  plane waves:   14407
 k-point 94 :   0.4348 0.2174 0.0000  plane waves:   14436
 k-point 95 :   0.4783 0.2174-0.0000  plane waves:   14437
 k-point 96 :  -0.4783 0.2174 0.0000  plane waves:   14466
 k-point 97 :  -0.4348 0.2174-0.0000  plane waves:   14469
 k-point 98 :  -0.3913 0.2174-0.0000  plane waves:   14475
 k-point 99 :  -0.3478 0.2174-0.0000  plane waves:   14495
 k-point ** :  -0.3043 0.2174-0.0000  plane waves:   14527
 k-point ** :  -0.2609 0.2174-0.0000  plane waves:   14585
 k-point ** :  -0.2174 0.2174-0.0000  plane waves:   14605
 k-point ** :   0.2609 0.2609-0.0000  plane waves:   14394
 k-point ** :   0.3043 0.2609-0.0000  plane waves:   14403
 k-point ** :   0.3478 0.2609-0.0000  plane waves:   14431
 k-point ** :   0.3913 0.2609-0.0000  plane waves:   14450
 k-point ** :   0.4348 0.2609 0.0000  plane waves:   14450
 k-point ** :   0.4783 0.2609 0.0000  plane waves:   14463
 k-point ** :  -0.4783 0.2609-0.0000  plane waves:   14470
 k-point ** :  -0.4348 0.2609-0.0000  plane waves:   14464
 k-point ** :  -0.3913 0.2609-0.0000  plane waves:   14447
 k-point ** :  -0.3478 0.2609-0.0000  plane waves:   14469
 k-point ** :  -0.3043 0.2609-0.0000  plane waves:   14503
 k-point ** :  -0.2609 0.2609-0.0000  plane waves:   14549
 k-point ** :   0.3043 0.3043-0.0000  plane waves:   14446
 k-point ** :   0.3478 0.3043-0.0000  plane waves:   14460
 k-point ** :   0.3913 0.3043-0.0000  plane waves:   14456
 k-point ** :   0.4348 0.3043-0.0000  plane waves:   14457
 k-point ** :   0.4783 0.3043-0.0000  plane waves:   14464
 k-point ** :  -0.4783 0.3043-0.0000  plane waves:   14455
 k-point ** :  -0.4348 0.3043-0.0000  plane waves:   14452
 k-point ** :  -0.3913 0.3043-0.0000  plane waves:   14450
 k-point ** :  -0.3478 0.3043-0.0000  plane waves:   14443
 k-point ** :  -0.3043 0.3043-0.0000  plane waves:   14477
 k-point ** :   0.3478 0.3478-0.0000  plane waves:   14470
 k-point ** :   0.3913 0.3478-0.0000  plane waves:   14451
 k-point ** :   0.4348 0.3478 0.0000  plane waves:   14424
 k-point ** :   0.4783 0.3478-0.0000  plane waves:   14455
 k-point ** :  -0.4783 0.3478-0.0000  plane waves:   14429
 k-point ** :  -0.4348 0.3478-0.0000  plane waves:   14433
 k-point ** :  -0.3913 0.3478-0.0000  plane waves:   14420
 k-point ** :  -0.3478 0.3478-0.0000  plane waves:   14421
 k-point ** :   0.3913 0.3913-0.0000  plane waves:   14436
 k-point ** :   0.4348 0.3913-0.0000  plane waves:   14406
 k-point ** :   0.4783 0.3913-0.0000  plane waves:   14415
 k-point ** :  -0.4783 0.3913-0.0000  plane waves:   14391
 k-point ** :  -0.4348 0.3913-0.0000  plane waves:   14400
 k-point ** :  -0.3913 0.3913-0.0000  plane waves:   14361
 k-point ** :   0.4348 0.4348 0.0000  plane waves:   14382
 k-point ** :   0.4783 0.4348-0.0000  plane waves:   14407
 k-point ** :  -0.4783 0.4348 0.0000  plane waves:   14405
 k-point ** :  -0.4348 0.4348-0.0000  plane waves:   14400
 k-point ** :   0.4783 0.4783-0.0000  plane waves:   14408
 k-point ** :  -0.4783 0.4783-0.0000  plane waves:   14438

 maximum and minimum number of plane-waves per node :      3708     3563

 maximum number of plane-waves:     14675
 maximum index in each direction: 
   IXMAX=    6   IYMAX=    5   IZMAX=  128
   IXMIN=   -6   IYMIN=   -6   IZMIN= -128


 parallel 3D FFT for wavefunctions:
    minimum data exchange during FFTs selected (reduces bandwidth)
 parallel 3D FFT for charge:
    minimum data exchange during FFTs selected (reduces bandwidth)


 total amount of memory used by VASP MPI-rank0   338794. kBytes
=======================================================================

   base      :      30000. kBytes
   nonl-proj :     163918. kBytes
   fftplans  :      21368. kBytes
   grid      :      13079. kBytes
   one-center:         56. kBytes
   wavefun   :     110373. kBytes
 
     INWAV:  cpu time    0.0000: real time    0.0002
 Broyden mixing: mesh for mixing (old mesh)
   NGX = 11   NGY = 11   NGZ =257
  (NGX  = 48   NGY  = 48   NGZ  =***)
  gives a total of  31097 points

 initial charge density was supplied:
 charge density of overlapping atoms calculated
 number of electron      99.0000000 magnetization 
 keeping initial charge density in first step


--------------------------------------------------------------------------------------------------------


 Maximum index for augmentation-charges        10331 (set IRDMAX)


--------------------------------------------------------------------------------------------------------


 First call to EWALD:  gamma=   0.218
 Maximum number of real-space cells 8x 8x 1
 Maximum number of reciprocal cells 1x 1x20

    FEWALD:  cpu time    0.0017: real time    0.0017


--------------------------------------- Iteration      1(   1)  ---------------------------------------


    POTLOK:  cpu time    0.0902: real time    0.0933
    SETDIJ:  cpu time    0.2036: real time    0.2040
     EDDAV:  cpu time   46.7423: real time   46.9542
 BZINTS: Fermi energy: 12.150683; 99.000000 electrons
         Band energy: -18.327077;  BLOECHL correction: -0.061926
       DOS:  cpu time    0.0641: real time    0.0642
    --------------------------------------------
      LOOP:  cpu time   47.1001: real time   47.3156

 eigenvalue-minimisations  : 19190
 total energy-change (2. order) : 0.7168242E+03  (-0.4115068E+04)
 number of electron      99.0000000 magnetization 
 augmentation part       99.0000000 magnetization 

 Free energy of the ion-electron system (eV)
  ---------------------------------------------------
  alpha Z        PSCENC =        78.47135263
  Ewald energy   TEWEN  =    163160.27934898
  -Hartree energ DENC   =   -167739.62390433
  -exchange      EXHF   =         0.00000000
  -V(xc)+E(xc)   XCENC  =      -342.11599032
  PAW double counting   =      4516.65612620    -3844.19644948
  entropy T*S    EENTRO =         0.00000000
  eigenvalues    EBANDS =       -18.32707750
  atomic energy  EATOM  =      4905.68083858
  Solvation  Ediel_sol  =         0.00000000
  ---------------------------------------------------
  free energy    TOTEN  =       716.82424476 eV

  energy without entropy =      716.82424476  energy(sigma->0) =      716.82424476


--------------------------------------------------------------------------------------------------------




--------------------------------------- Iteration      1(   2)  ---------------------------------------


     EDDAV:  cpu time   56.6027: real time   56.7707
 BZINTS: Fermi energy:  1.086915; 99.000000 electrons
         Band energy:-777.396351;  BLOECHL correction: -0.066492
       DOS:  cpu time    0.0599: real time    0.0599
    --------------------------------------------
      LOOP:  cpu time   56.6626: real time   56.8306

 eigenvalue-minimisations  : 24880
 total energy-change (2. order) :-0.7590693E+03  (-0.7193544E+03)
 number of electron      99.0000000 magnetization 
 augmentation part       99.0000000 magnetization 

 Free energy of the ion-electron system (eV)
  ---------------------------------------------------
  alpha Z        PSCENC =        78.47135263
  Ewald energy   TEWEN  =    163160.27934898
  -Hartree energ DENC   =   -167739.62390433
  -exchange      EXHF   =         0.00000000
  -V(xc)+E(xc)   XCENC  =      -342.11599032
  PAW double counting   =      4516.65612620    -3844.19644948
  entropy T*S    EENTRO =         0.00000000
  eigenvalues    EBANDS =      -777.39635076
  atomic energy  EATOM  =      4905.68083858
  Solvation  Ediel_sol  =         0.00000000
  ---------------------------------------------------
  free energy    TOTEN  =       -42.24502851 eV

  energy without entropy =      -42.24502851  energy(sigma->0) =      -42.24502851


--------------------------------------------------------------------------------------------------------




--------------------------------------- Iteration      1(   3)  ---------------------------------------


     EDDAV:  cpu time   51.6301: real time   51.8055
 BZINTS: Fermi energy:  0.500770; 99.000000 electrons
         Band energy:-888.946690;  BLOECHL correction: -0.056421
       DOS:  cpu time    0.0573: real time    0.0573
    --------------------------------------------
      LOOP:  cpu time   51.6874: real time   51.8629

 eigenvalue-minimisations  : 22275
 total energy-change (2. order) :-0.1115503E+03  (-0.1106925E+03)
 number of electron      99.0000000 magnetization 
 augmentation part       99.0000000 magnetization 

 Free energy of the ion-electron system (eV)
  ---------------------------------------------------
  alpha Z        PSCENC =        78.47135263
  Ewald energy   TEWEN  =    163160.27934898
  -Hartree energ DENC   =   -167739.62390433
  -exchange      EXHF   =         0.00000000
  -V(xc)+E(xc)   XCENC  =      -342.11599032
  PAW double counting   =      4516.65612620    -3844.19644948
  entropy T*S    EENTRO =         0.00000000
  eigenvalues    EBANDS =      -888.94669045
  atomic energy  EATOM  =      4905.68083858
  Solvation  Ediel_sol  =         0.00000000
  ---------------------------------------------------
  free energy    TOTEN  =      -153.79536819 eV

  energy without entropy =     -153.79536819  energy(sigma->0) =     -153.79536819


--------------------------------------------------------------------------------------------------------




--------------------------------------- Iteration      1(   4)  ---------------------------------------


     EDDAV:  cpu time   52.6227: real time   52.8177
 BZINTS: Fermi energy:  0.478892; 99.000000 electrons
         Band energy:-892.148829;  BLOECHL correction: -0.055600
       DOS:  cpu time    0.0475: real time    0.0478
    --------------------------------------------
      LOOP:  cpu time   52.6702: real time   52.8655

 eigenvalue-minimisations  : 22930
 total energy-change (2. order) :-0.3202138E+01  (-0.3195382E+01)
 number of electron      99.0000000 magnetization 
 augmentation part       99.0000000 magnetization 

 Free energy of the ion-electron system (eV)
  ---------------------------------------------------
  alpha Z        PSCENC =        78.47135263
  Ewald energy   TEWEN  =    163160.27934898
  -Hartree energ DENC   =   -167739.62390433
  -exchange      EXHF   =         0.00000000
  -V(xc)+E(xc)   XCENC  =      -342.11599032
  PAW double counting   =      4516.65612620    -3844.19644948
  entropy T*S    EENTRO =         0.00000000
  eigenvalues    EBANDS =      -892.14882864
  atomic energy  EATOM  =      4905.68083858
  Solvation  Ediel_sol  =         0.00000000
  ---------------------------------------------------
  free energy    TOTEN  =      -156.99750638 eV

  energy without entropy =     -156.99750638  energy(sigma->0) =     -156.99750638


--------------------------------------------------------------------------------------------------------




--------------------------------------- Iteration      1(   5)  ---------------------------------------


     EDDAV:  cpu time   56.4714: real time   56.6150
 BZINTS: Fermi energy:  0.477938; 99.000000 electrons
         Band energy:-892.236081;  BLOECHL correction: -0.055539
       DOS:  cpu time    0.0553: real time    0.0554
    CHARGE:  cpu time    2.2626: real time    2.2658
    MIXING:  cpu time    0.0089: real time    0.0089
    --------------------------------------------
      LOOP:  cpu time   58.7983: real time   58.9451

 eigenvalue-minimisations  : 24915
 total energy-change (2. order) :-0.8725241E-01  (-0.8723333E-01)
 number of electron      99.0000001 magnetization 
 augmentation part        7.8184338 magnetization 

 Broyden mixing:
  rms(total) = 0.23842E+01    rms(broyden)= 0.23837E+01
  rms(prec ) = 0.24553E+01
  weight for this iteration     100.00

 Free energy of the ion-electron system (eV)
  ---------------------------------------------------
  alpha Z        PSCENC =        78.47135263
  Ewald energy   TEWEN  =    163160.27934898
  -Hartree energ DENC   =   -167739.62390433
  -exchange      EXHF   =         0.00000000
  -V(xc)+E(xc)   XCENC  =      -342.11599032
  PAW double counting   =      4516.65612620    -3844.19644948
  entropy T*S    EENTRO =         0.00000000
  eigenvalues    EBANDS =      -892.23608105
  atomic energy  EATOM  =      4905.68083858
  Solvation  Ediel_sol  =         0.00000000
  ---------------------------------------------------
  free energy    TOTEN  =      -157.08475879 eV

  energy without entropy =     -157.08475879  energy(sigma->0) =     -157.08475879


--------------------------------------------------------------------------------------------------------




--------------------------------------- Iteration      1(   6)  ---------------------------------------


    POTLOK:  cpu time    0.0847: real time    0.0861
    SETDIJ:  cpu time    0.1990: real time    0.1999
     EDDAV:  cpu time   54.4723: real time   54.7916
 BZINTS: Fermi energy:  0.720812; 99.000000 electrons
         Band energy:-666.672699;  BLOECHL correction: -0.078262
       DOS:  cpu time    0.0592: real time    0.0594
    CHARGE:  cpu time    2.1932: real time    2.1985
    MIXING:  cpu time    0.0116: real time    0.0117
    --------------------------------------------
      LOOP:  cpu time   57.0200: real time   57.3473

 eigenvalue-minimisations  : 22720
 total energy-change (2. order) : 0.1405403E+02  (-0.1161436E+02)
 number of electron      99.0000001 magnetization 
 augmentation part        5.5729495 magnetization 

 Broyden mixing:
  rms(total) = 0.24642E+01    rms(broyden)= 0.24633E+01
  rms(prec ) = 0.31288E+01
  weight for this iteration     100.00

 eigenvalues of (default mixing * dielectric matrix)
  average eigenvalue GAMMA=   0.5013
  0.5013

 Free energy of the ion-electron system (eV)
  ---------------------------------------------------
  alpha Z        PSCENC =        78.47135263
  Ewald energy   TEWEN  =    163160.27934898
  -Hartree energ DENC   =   -167961.29815135
  -exchange      EXHF   =         0.00000000
  -V(xc)+E(xc)   XCENC  =      -328.39028958
  PAW double counting   =      5416.07924623    -4747.18037604
  entropy T*S    EENTRO =         0.00000000
  eigenvalues    EBANDS =      -666.67269888
  atomic energy  EATOM  =      4905.68083858
  Solvation  Ediel_sol  =         0.00000000
  ---------------------------------------------------
  free energy    TOTEN  =      -143.03072944 eV

  energy without entropy =     -143.03072944  energy(sigma->0) =     -143.03072944


--------------------------------------------------------------------------------------------------------




--------------------------------------- Iteration      1(   7)  ---------------------------------------


    POTLOK:  cpu time    0.0891: real time    0.0894
    SETDIJ:  cpu time    0.2161: real time    0.2167
     EDDAV:  cpu time   54.1829: real time   54.6297
 BZINTS: Fermi energy:  1.456323; 99.000000 electrons
         Band energy:-719.379110;  BLOECHL correction: -0.060298
       DOS:  cpu time    0.0571: real time    0.0571
    CHARGE:  cpu time    2.3193: real time    2.3229
    MIXING:  cpu time    0.0173: real time    0.0174
    --------------------------------------------
      LOOP:  cpu time   56.8818: real time   57.3332

 eigenvalue-minimisations  : 21700
 total energy-change (2. order) :-0.2401015E+01  (-0.2179714E+02)
 number of electron      99.0000001 magnetization 
 augmentation part        6.5093255 magnetization 

 Broyden mixing:
  rms(total) = 0.11375E+01    rms(broyden)= 0.11363E+01
  rms(prec ) = 0.12510E+01
  weight for this iteration     100.00

 eigenvalues of (default mixing * dielectric matrix)
  average eigenvalue GAMMA=   0.5635
  0.8281  0.2988

 Free energy of the ion-electron system (eV)
  ---------------------------------------------------
  alpha Z        PSCENC =        78.47135263
  Ewald energy   TEWEN  =    163160.27934898
  -Hartree energ DENC   =   -167910.07273383
  -exchange      EXHF   =         0.00000000
  -V(xc)+E(xc)   XCENC  =      -329.82458627
  PAW double counting   =      5535.36037903    -4865.94723327
  entropy T*S    EENTRO =         0.00000000
  eigenvalues    EBANDS =      -719.37911020
  atomic energy  EATOM  =      4905.68083858
  Solvation  Ediel_sol  =         0.00000000
  ---------------------------------------------------
  free energy    TOTEN  =      -145.43174435 eV

  energy without entropy =     -145.43174435  energy(sigma->0) =     -145.43174435


--------------------------------------------------------------------------------------------------------




--------------------------------------- Iteration      1(   8)  ---------------------------------------


    POTLOK:  cpu time    0.0894: real time    0.0911
    SETDIJ:  cpu time    0.1981: real time    0.1991
     EDDAV:  cpu time   56.0099: real time   56.1919
 BZINTS: Fermi energy:  1.146152; 99.000000 electrons
[...]
     46      -1.0581      2.00000
     47      -0.8646      2.00000
     48      -0.7506      2.00000
     49      -0.5232      2.00000
     50       0.1727      2.00000
     51       0.2316      2.00000
     52       0.5899     -0.28146
     53       0.9714      0.00000
     54       2.2629      0.00000
     55       2.7141      0.00000
     56       3.7363      0.00000
     57       4.0448      0.00000
     58       4.3023      0.00000
     59       4.5489      0.00000
     60       5.1890      0.00000
     61       5.4223      0.00000
     62       5.5780      0.00000
     63       5.9180      0.00000
     64       6.2132      0.00000
     65       6.3591      0.00000

 k-point   142 :      -0.4348    0.4348   -0.0000
  band No.  band energies     occupation 
      1     -19.7859      2.00000
      2     -19.0383      2.00000
      3     -18.5711      2.00000
      4     -18.0985      2.00000
      5     -17.6248      2.00000
      6     -17.1493      2.00000
      7     -16.6724      2.00000
      8     -16.1962      2.00000
      9     -15.6964      2.00000
     10     -14.9504      2.00000
     11      -7.6675      2.00000
     12      -7.2197      2.00000
     13      -6.7413      2.00000
     14      -6.3772      2.00000
     15      -6.2394      2.00000
     16      -6.1377      2.00000
     17      -5.7634      2.00000
     18      -5.6895      2.00000
     19      -5.2465      2.00000
     20      -5.0782      2.00000
     21      -5.0626      2.00000
     22      -4.8052      2.00000
     23      -4.7298      2.00000
     24      -4.2859      2.00000
     25      -4.2096      2.00000
     26      -4.0897      2.00000
     27      -4.0586      2.00000
     28      -3.7085      2.00000
     29      -3.6318      2.00000
     30      -3.5957      2.00000
     31      -3.5915      2.00000
     32      -3.1963      2.00000
     33      -3.1746      2.00000
     34      -3.1231      2.00000
     35      -2.9254      2.00000
     36      -2.7532      2.00000
     37      -2.6504      2.00000
     38      -2.5211      2.00000
     39      -2.4187      2.00000
     40      -2.1756      2.00000
     41      -2.1625      2.00000
     42      -1.7664      2.00000
     43      -1.6987      2.00000
     44      -1.5830      2.00000
     45      -1.2181      2.00000
     46      -1.1637      2.00000
     47      -0.8604      2.00000
     48      -0.6866      2.00000
     49      -0.2201      2.00000
     50       0.2174      2.00000
     51       0.2268      2.00000
     52       0.3953      0.22595
     53       1.2007      0.00000
     54       2.1104      0.00000
     55       2.9696      0.00000
     56       3.7696      0.00000
     57       4.1344      0.00000
     58       5.0619      0.00000
     59       5.0940      0.00000
     60       5.4011      0.00000
     61       5.4602      0.00000
     62       5.7684      0.00000
     63       6.0023      0.00000
     64       6.0970      0.00000
     65       6.3472      0.00000

 k-point   143 :       0.4783    0.4783   -0.0000
  band No.  band energies     occupation 
      1     -19.7405      2.00000
      2     -18.9960      2.00000
      3     -18.5327      2.00000
      4     -18.0601      2.00000
      5     -17.5863      2.00000
      6     -17.1109      2.00000
      7     -16.6339      2.00000
      8     -16.1576      2.00000
      9     -15.6589      2.00000
     10     -14.9299      2.00000
     11      -7.7152      2.00000
     12      -7.2418      2.00000
     13      -6.7929      2.00000
     14      -6.2676      2.00000
     15      -6.1092      2.00000
     16      -5.7771      2.00000
     17      -5.3178      2.00000
     18      -5.1852      2.00000
     19      -5.0266      2.00000
     20      -4.9973      2.00000
     21      -4.8388      2.00000
     22      -4.7751      2.00000
     23      -4.5973      2.00000
     24      -4.4662      2.00000
     25      -4.3448      2.00000
     26      -4.2344      2.00000
     27      -4.1087      2.00000
     28      -3.8749      2.00000
     29      -3.8116      2.00000
     30      -3.7382      2.00000
     31      -3.7033      2.00000
     32      -3.6100      2.00000
     33      -3.2417      2.00000
     34      -3.1365      2.00000
     35      -3.0010      2.00000
     36      -2.8389      2.00000
     37      -2.7796      2.00000
     38      -2.6841      2.00000
     39      -2.4326      2.00000
     40      -2.2832      2.00000
     41      -2.1756      2.00000
     42      -1.9558      2.00000
     43      -1.7870      2.00000
     44      -1.5963      2.00000
     45      -1.3676      2.00000
     46      -1.2940      2.00000
     47      -0.8723      2.00000
     48      -0.7619      2.00000
     49      -0.2287      2.00000
     50       0.0110      2.00000
     51       0.1654      2.00000
     52       0.2268      1.91490
     53       1.5242      0.00000
     54       1.6942      0.00000
     55       3.0421      0.00000
     56       3.2984      0.00000
     57       4.1120      0.00000
     58       4.3318      0.00000
     59       4.5533      0.00000
     60       5.2025      0.00000
     61       5.2976      0.00000
     62       5.5798      0.00000
     63       5.8371      0.00000
     64       6.2203      0.00000
     65       6.3858      0.00000

 k-point   144 :      -0.4783    0.4783   -0.0000
  band No.  band energies     occupation 
      1     -19.7506      2.00000
      2     -19.0044      2.00000
      3     -18.5406      2.00000
      4     -18.0681      2.00000
      5     -17.5943      2.00000
      6     -17.1189      2.00000
      7     -16.6418      2.00000
      8     -16.1656      2.00000
      9     -15.6667      2.00000
     10     -14.9348      2.00000
     11      -7.7272      2.00000
     12      -7.2543      2.00000
     13      -6.8024      2.00000
     14      -6.2782      2.00000
     15      -6.1335      2.00000
     16      -5.7842      2.00000
     17      -5.4713      2.00000
     18      -5.3239      2.00000
     19      -5.0991      2.00000
     20      -5.0212      2.00000
     21      -4.8470      2.00000
     22      -4.7617      2.00000
     23      -4.5768      2.00000
     24      -4.3532      2.00000
     25      -4.3163      2.00000
     26      -4.1737      2.00000
     27      -4.1109      2.00000
     28      -4.0744      2.00000
     29      -3.7457      2.00000
     30      -3.6633      2.00000
     31      -3.6167      2.00000
     32      -3.4651      2.00000
     33      -3.3175      2.00000
     34      -3.1784      2.00000
     35      -3.1442      2.00000
     36      -2.7409      2.00000
     37      -2.6715      2.00000
     38      -2.5789      2.00000
     39      -2.4384      2.00000
     40      -2.2054      2.00000
     41      -2.1966      2.00000
     42      -2.1319      2.00000
     43      -1.7197      2.00000
     44      -1.6041      2.00000
     45      -1.2391      2.00000
     46      -1.2219      2.00000
     47      -0.8767      2.00000
     48      -0.7070      2.00000
     49      -0.4856      2.00000
     50       0.2024      2.00000
     51       0.2180      2.00000
     52       0.2611      1.60575
     53       1.2025      0.00000
     54       1.9769      0.00000
     55       2.8424      0.00000
     56       3.4867      0.00000
     57       4.2536      0.00000
     58       4.9914      0.00000
     59       4.9916      0.00000
     60       5.3309      0.00000
     61       5.4572      0.00000
     62       5.6669      0.00000
     63       5.9323      0.00000
     64       6.0629      0.00000
     65       6.3445      0.00000


--------------------------------------------------------------------------------------------------------


 soft charge-density along one line, spin component           1
         0         1         2         3         4         5         6         7         8         9
 total charge-density along one line
 
 pseudopotential strength for first ion, spin component:           1
 13.206 -16.150  -0.002   0.005   0.001   0.002  -0.006  -0.001
-16.150  19.775   0.002  -0.006  -0.001  -0.003   0.008   0.002
 -0.002   0.002  -9.666   0.003  -0.017  11.848  -0.004   0.023
  0.005  -0.006   0.003  -9.683  -0.001  -0.004  11.870   0.002
  0.001  -0.001  -0.017  -0.001  -9.686   0.023   0.002  11.874
  0.002  -0.003  11.848  -0.004   0.023 -14.419   0.005  -0.031
 -0.006   0.008  -0.004  11.870   0.002   0.005 -14.449  -0.003
 -0.001   0.002   0.023   0.002  11.874  -0.031  -0.003 -14.455
 total augmentation occupancy for first ion, spin component:           1
  2.570   0.351   0.009  -0.010  -0.005   0.003  -0.012  -0.002
  0.351   0.090   0.006  -0.019  -0.004   0.001  -0.014  -0.000
  0.009   0.006   2.097   0.008   0.009   0.232  -0.002   0.023
 -0.010  -0.019   0.008   2.132  -0.004  -0.002   0.258   0.001
 -0.005  -0.004   0.009  -0.004   2.107   0.023   0.001   0.258
  0.003   0.001   0.232  -0.002   0.023   0.030  -0.000   0.005
 -0.012  -0.014  -0.002   0.258   0.001  -0.000   0.038   0.000
 -0.002  -0.000   0.023   0.001   0.258   0.005   0.000   0.036


------------------------ aborting loop because EDIFF is reached ----------------------------------------


    CHARGE:  cpu time    2.2232: real time    2.2543
    FORLOC:  cpu time    0.0308: real time    0.0308
    FORNL :  cpu time   13.1763: real time   13.2118
    STRESS:  cpu time   29.1625: real time   29.2729
    FORCOR:  cpu time    0.1102: real time    0.1106
    FORHAR:  cpu time    0.0391: real time    0.0393
    MIXING:  cpu time    0.0088: real time    0.0089
    OFIELD:  cpu time    0.0001: real time    0.0001

  FORCE on cell =-STRESS in cart. coord.  units (eV):
  Direction    XX          YY          ZZ          XY          YZ          ZX
  --------------------------------------------------------------------------------------
  Alpha Z    78.47135    78.47135    78.47135
  Ewald  165833.94651165790.89604************    37.28290  2385.01883 -1376.99172
  Hartree167057.75542167039.19499************    16.07377  2387.53389 -1378.44370
  E(xc)    -415.09063  -415.09888  -415.43251     0.00714     0.06193    -0.03575
  Local  ************************333383.14557   -50.87098 -4773.55815  2756.01588
  n-local   -56.25305   -63.95189   -56.94274    -1.33128     1.35872     3.62585
  augment    60.09171    60.30684    59.95199    -0.18632     0.06156    -0.03532
  Kinetic  1511.24477  1499.95986  1506.81243    -7.26669     1.19579    -1.00002
  Fock        0.00000     0.00000     0.00000     0.00000     0.00000     0.00000
  -------------------------------------------------------------------------------------
  Total      -1.33811    -1.29837    -0.04768    -0.03441    -0.10326     0.05962
  in kB      -3.98642    -3.86805    -0.14205    -0.10251    -0.30762     0.17760
  external pressure =       -2.67 kB  Pullay stress =        0.00 kB


 VOLUME and BASIS-vectors are now :
 -----------------------------------------------------------------------------
  energy-cutoff  :      520.00
  volume of cell :      537.80
      direct lattice vectors                 reciprocal lattice vectors
     2.595974150 -1.522302603 -0.021631981     0.386753138  0.002606133  0.001563730
    -0.020365814  3.009330567  0.021631976     0.195633548  0.333635020 -0.001563730
    -0.282768370  0.489769182 69.120091079     0.000059813 -0.000103600  0.014468552

  length of vectors
     3.009477520  3.009477225 69.122404635     0.386765080  0.386765118  0.014469047


 FORCES acting on ions
    electron-ion (+dipol)            ewald-force                    non-local-force                 convergence-correction
 -----------------------------------------------------------------------------------------------
   0.804E+01 -.139E+02 0.215E+04   -.762E+01 0.132E+02 -.215E+04   -.418E+00 0.724E+00 -.200E+01   -.174E-02 0.302E-02 -.438E+00
   0.124E+01 -.215E+01 0.287E+03   -.126E+01 0.218E+01 -.285E+03   0.143E-01 -.248E-01 -.193E+01   -.187E-02 0.324E-02 -.452E+00
   -.650E+01 0.113E+02 -.158E+04   0.649E+01 -.112E+02 0.159E+04   0.195E-01 -.338E-01 -.196E+01   -.181E-02 0.314E-02 -.439E+00
   -.142E+02 0.246E+02 -.345E+04   0.144E+02 -.249E+02 0.346E+04   -.190E+00 0.329E+00 -.157E+02   0.129E-02 -.224E-02 0.252E-01
   0.654E+01 -.113E+02 0.153E+04   -.651E+01 0.113E+02 -.153E+04   -.291E-01 0.503E-01 -.185E+01   -.185E-02 0.321E-02 -.450E+00
   0.382E+01 -.661E+01 0.911E+03   -.383E+01 0.663E+01 -.909E+03   0.826E-02 -.143E-01 -.192E+01   -.187E-02 0.324E-02 -.452E+00
   -.134E+01 0.232E+01 -.337E+03   0.132E+01 -.229E+01 0.339E+03   0.171E-01 -.297E-01 -.195E+01   -.186E-02 0.323E-02 -.451E+00
   -.392E+01 0.679E+01 -.961E+03   0.390E+01 -.676E+01 0.963E+03   0.189E-01 -.327E-01 -.194E+01   -.185E-02 0.320E-02 -.447E+00
   -.909E+01 0.157E+02 -.221E+04   0.907E+01 -.157E+02 0.221E+04   0.167E-01 -.289E-01 -.207E+01   -.171E-02 0.296E-02 -.424E+00
   -.117E+02 0.202E+02 -.283E+04   0.117E+02 -.202E+02 0.284E+04   -.295E-03 0.512E-03 -.320E+01   -.927E-03 0.161E-02 -.327E+00
   0.163E+01 -.283E+01 0.405E+03   -.164E+01 0.283E+01 -.404E+03   0.599E-03 -.104E-02 -.110E+01   -.621E-03 0.108E-02 -.150E+00
   -.988E+00 0.171E+01 -.218E+03   0.978E+00 -.169E+01 0.220E+03   0.105E-01 -.182E-01 -.109E+01   -.619E-03 0.107E-02 -.150E+00
   -.360E+01 0.624E+01 -.843E+03   0.359E+01 -.621E+01 0.845E+03   0.171E-01 -.296E-01 -.125E+01   -.545E-03 0.944E-03 -.129E+00
   0.364E+01 -.630E+01 0.613E+03   -.331E+01 0.574E+01 -.612E+03   -.325E+00 0.562E+00 -.114E+01   -.611E-03 0.106E-02 -.148E+00
   0.755E+00 -.131E+01 0.197E+03   -.761E+00 0.132E+01 -.196E+03   0.533E-02 -.923E-02 -.109E+01   -.622E-03 0.108E-02 -.151E+00
   -.124E+00 0.214E+00 -.105E+02   0.114E+00 -.198E+00 0.117E+02   0.962E-02 -.167E-01 -.109E+01   -.624E-03 0.108E-02 -.151E+00
   -.186E+01 0.322E+01 -.426E+03   0.185E+01 -.320E+01 0.428E+03   0.128E-01 -.221E-01 -.109E+01   -.610E-03 0.106E-02 -.148E+00
   -.272E+01 0.471E+01 -.634E+03   0.271E+01 -.469E+01 0.636E+03   0.135E-01 -.234E-01 -.111E+01   -.596E-03 0.103E-02 -.144E+00
   -.464E+01 0.803E+01 -.106E+04   0.459E+01 -.794E+01 0.106E+04   0.508E-01 -.880E-01 -.228E+01   -.223E-03 0.386E-03 -.457E-01
   0.483E+01 -.837E+01 0.118E+04   -.484E+01 0.838E+01 -.118E+04   0.794E-02 -.138E-01 -.144E+01   0.538E-03 -.931E-03 0.124E+00
   0.503E+01 -.870E+01 0.122E+04   -.502E+01 0.870E+01 -.122E+04   0.563E-03 -.976E-03 0.665E-01   -.257E-03 0.445E-03 -.558E-01
   0.555E+01 -.961E+01 0.123E+04   -.565E+01 0.978E+01 -.124E+04   0.959E-01 -.166E+00 0.503E+01   -.816E-03 0.141E-02 -.200E+00
   0.493E+01 -.854E+01 0.121E+04   -.497E+01 0.862E+01 -.121E+04   0.407E-01 -.705E-01 0.151E+00   -.149E-04 0.257E-04 -.110E-03
   0.523E+01 -.906E+01 0.125E+04   -.526E+01 0.911E+01 -.125E+04   0.364E-01 -.630E-01 -.136E+00   -.632E-03 0.109E-02 -.157E+00
   0.496E+01 -.859E+01 0.119E+04   -.495E+01 0.857E+01 -.119E+04   -.105E-01 0.182E-01 -.167E-01   0.251E-03 -.435E-03 0.627E-01
   0.502E+01 -.869E+01 0.123E+04   -.507E+01 0.877E+01 -.123E+04   0.416E-01 -.720E-01 0.176E-01   -.486E-03 0.841E-03 -.108E+00
 -----------------------------------------------------------------------------------------------
   0.555E+00 -.962E+00 0.475E+02   -.799E-14 -.178E-14 -.341E-11   -.535E+00 0.926E+00 -.421E+02   -.207E-01 0.358E-01 -.540E+01
 
 
 POSITION                                       TOTAL-FORCE (eV/Angst)
 -----------------------------------------------------------------------------------
      1.10494      1.06024     30.93631         0.000854     -0.001479     -0.001993
      1.16928      0.94880     38.31686        -0.002022      0.003502     -0.000278
      1.17216      0.94382     45.70701        -0.000250      0.000433     -0.012759
      1.17989      0.93043     52.93175         0.005559     -0.009629      0.008752
      2.03165     -0.54486     33.37673         0.001020     -0.001767      0.015590
      0.29353      2.46565     35.86881        -0.002303      0.003989      0.000148
      2.04320     -0.56486     40.76621        -0.001433      0.002482     -0.012073
      0.29980      2.45479     43.25808        -0.000860      0.001490     -0.007950
      2.04479     -0.56762     48.15320        -0.000349      0.000604     -0.022928
      0.30247      2.45016     50.62169         0.000447     -0.000774     -0.021276
      1.15998      0.96491     34.70126        -0.003086      0.005344     -0.004712
      1.16740      0.95206     42.08947        -0.000503      0.000870      0.009359
      1.16851      0.95014     49.48283         0.001784     -0.003090      0.016419
      0.28455      2.48119     32.25364        -0.000862      0.001492     -0.009687
      2.03622     -0.55278     37.14877        -0.001785      0.003091      0.006678
      0.29415      2.46457     39.64059        -0.000556      0.000963      0.008581
      2.03979     -0.55897     44.53838         0.000365     -0.000632      0.011801
      0.29585      2.46164     47.03117         0.000775     -0.001342      0.005032
      2.04029     -0.55984     51.97775        -0.000284      0.000492     -0.011739
      2.33679     -1.07338     16.24204         0.003797     -0.006576     -0.067680
      2.36388     -1.12031     22.91309         0.005200     -0.009007     -0.006897
      2.37327     -1.13657     29.53359        -0.001785      0.003091      0.081783
      1.48065      0.40949     20.71413        -0.001568      0.002715     -0.007138
      1.55397      0.28250     27.39196         0.006704     -0.011612     -0.024122
      0.60458      1.92689     18.52015        -0.002837      0.004913      0.014988
      0.64113      1.86359     25.17387        -0.006024      0.010433      0.032098
 -----------------------------------------------------------------------------------
    total drift:                                0.000080     -0.000155      0.002950


--------------------------------------------------------------------------------------------------------



  FREE ENERGIE OF THE ION-ELECTRON SYSTEM (eV)
  ---------------------------------------------------
  free  energy   TOTEN  =      -137.49812422 eV

  energy  without entropy=     -137.49812422  energy(sigma->0) =     -137.49812422
 


--------------------------------------------------------------------------------------------------------


    POTLOK:  cpu time    0.3194: real time    0.3213


--------------------------------------------------------------------------------------------------------


 stress matrix after NEB project (eV)
     -1.33811     -0.03441      0.05962
     -0.03441     -1.29837     -0.10326
      0.05962     -0.10326     -0.04768
  FORCES: max atom, RMS     0.081861    0.025245
  FORCE total and by dimension    0.128727    0.081783
  Stress total and by dimension    1.873332    1.338106
     LOOP+:  cpu time 3056.6360: real time 3072.0699
    4ORBIT:  cpu time    0.0000: real time    0.0000
 BZINTS: Fermi energy:  0.350088; 99.000000 electrons
         Band energy:-630.826897;  BLOECHL correction: -0.035761

 total amount of memory used by VASP MPI-rank0   338794. kBytes
=======================================================================

   base      :      30000. kBytes
   nonl-proj :     163918. kBytes
   fftplans  :      21368. kBytes
   grid      :      13079. kBytes
   one-center:         56. kBytes
   wavefun   :     110373. kBytes
 
  
  
 General timing and accounting informations for this job:
 ========================================================
  
                  Total CPU time used (sec):     3073.233
                            User time (sec):     3056.513
                          System time (sec):       16.720
                         Elapsed time (sec):     3088.694
  
                   Maximum memory used (kb):      465120.
                   Average memory used (kb):           0.
  
                          Minor page faults:      2945919
                          Major page faults:            0
                 Voluntary context switches:         1153
