 vasp.5.4.4.18Apr17-6-g9f103f2a35 (build Nov 15 2019 10:10:58) complex          
  
 executed on             LinuxIFC date 2024.07.31  11:10:30
 running on   20 total cores
 distrk:  each k-point on   20 cores,    1 groups
 distr:  one band on NCORES_PER_BAND=   4 cores,    5 groups


--------------------------------------------------------------------------------------------------------


 INCAR:
 POTCAR:    PAW_PBE O 08Apr2002                   
 POTCAR:    PAW_PBE Mg 13Apr2007                  
 POTCAR:    PAW_PBE Al 04Jan2001                  
 POTCAR:    PAW_PBE O 08Apr2002                   
   VRHFIN =O: s2p4                                                              
   LEXCH  = PE                                                                  
   EATOM  =   432.3788 eV,   31.7789 Ry                                         
                                                                                
   TITEL  = PAW_PBE O 08Apr2002                                                 
   LULTRA =        F    use ultrasoft PP ?                                      
   IUNSCR =        1    unscreen: 0-lin 1-nonlin 2-no                           
   RPACOR =    1.200    partial core radius                                     
   POMASS =   16.000; ZVAL   =    6.000    mass and valenz                      
   RCORE  =    1.520    outmost cutoff radius                                   
   RWIGS  =    1.550; RWIGS  =    0.820    wigner-seitz radius (au A)           
   ENMAX  =  400.000; ENMIN  =  300.000 eV                                      
   ICORE  =        2    local potential                                         
   LCOR   =        T    correct aug charges                                     
   LPAW   =        T    paw PP                                                  
   EAUG   =  605.392                                                            
   DEXC   =    0.000                                                            
   RMAX   =    1.553    core radius for proj-oper                               
   RAUG   =    1.300    factor for augmentation sphere                          
   RDEP   =    1.550    radius for radial grids                                 
   RDEPT  =    1.329    core radius for aug-charge                              
                                                                                
   Atomic configuration                                                         
    4 entries                                                                   
     n  l   j            E        occ.                                          
     1  0  0.50      -514.6923   2.0000                                         
     2  0  0.50       -23.9615   2.0000                                         
     2  1  0.50        -9.0305   4.0000                                         
     3  2  1.50        -9.5241   0.0000                                         
   Description                                                                  
     l       E           TYP  RCUT    TYP  RCUT                                 
     0    -23.9615318     23  1.200                                             
     0     -9.5240782     23  1.200                                             
     1     -9.0304911     23  1.520                                             
     1      8.1634956     23  1.520                                             
     2     -9.5240782      7  1.500                                             
  local pseudopotential read in
  partial core-charges read in
  partial kinetic energy density read in
  kinetic energy density of atom read in
  atomic valenz-charges read in
  non local Contribution for L=           0  read in
    real space projection operators read in
  non local Contribution for L=           0  read in
    real space projection operators read in
  non local Contribution for L=           1  read in
    real space projection operators read in
  non local Contribution for L=           1  read in
    real space projection operators read in
    PAW grid and wavefunctions read in
 
   number of l-projection  operators is LMAX  =           4
   number of lm-projection operators is LMMAX =           8
 
 POTCAR:    PAW_PBE Mg 13Apr2007                  
   VRHFIN =Mg: s2p0                                                             
   LEXCH  = PE                                                                  
   EATOM  =    23.0369 eV,    1.6932 Ry                                         
                                                                                
   TITEL  = PAW_PBE Mg 13Apr2007                                                
   LULTRA =        F    use ultrasoft PP ?                                      
   IUNSCR =        1    unscreen: 0-lin 1-nonlin 2-no                           
   RPACOR =    1.500    partial core radius                                     
   POMASS =   24.305; ZVAL   =    2.000    mass and valenz                      
   RCORE  =    2.000    outmost cutoff radius                                   
   RWIGS  =    2.880; RWIGS  =    1.524    wigner-seitz radius (au A)           
   ENMAX  =  200.000; ENMIN  =  100.000 eV                                      
   RCLOC  =    1.506    cutoff for local pot                                    
   LCOR   =        T    correct aug charges                                     
   LPAW   =        T    paw PP                                                  
   EAUG   =  454.734                                                            
   DEXC   =    0.000                                                            
   RMAX   =    2.045    core radius for proj-oper                               
   RAUG   =    1.300    factor for augmentation sphere                          
   RDEP   =    2.025    radius for radial grids                                 
   RDEPT  =    1.942    core radius for aug-charge                              
                                                                                
   Atomic configuration                                                         
    6 entries                                                                   
     n  l   j            E        occ.                                          
     1  0  0.50     -1259.6230   2.0000                                         
     2  0  0.50       -79.8442   2.0000                                         
     2  1  1.50       -46.6121   6.0000                                         
     3  0  0.50        -4.7055   2.0000                                         
     3  1  0.50        -1.3660   0.0000                                         
     3  2  1.50        -1.3606   0.0000                                         
   Description                                                                  
     l       E           TYP  RCUT    TYP  RCUT                                 
     0     -4.7054661     23  2.000                                             
     0     27.2116520     23  2.000                                             
     1      1.3605826     23  2.000                                             
     1     27.2116520     23  2.000                                             
     2     -1.3605826     23  2.000                                             
  local pseudopotential read in
  partial core-charges read in
  partial kinetic energy density read in
  atomic valenz-charges read in
  non local Contribution for L=           0  read in
    real space projection operators read in
  non local Contribution for L=           0  read in
    real space projection operators read in
  non local Contribution for L=           1  read in
    real space projection operators read in
  non local Contribution for L=           1  read in
    real space projection operators read in
  non local Contribution for L=           2  read in
    real space projection operators read in
    PAW grid and wavefunctions read in
 
   number of l-projection  operators is LMAX  =           5
   number of lm-projection operators is LMMAX =          13
 
 POTCAR:    PAW_PBE Al 04Jan2001                  
   VRHFIN =Al: s2p1                                                             
   LEXCH  = PE                                                                  
   EATOM  =    53.5387 eV,    3.9350 Ry                                         
                                                                                
   TITEL  = PAW_PBE Al 04Jan2001                                                
   LULTRA =        F    use ultrasoft PP ?                                      
   IUNSCR =        1    unscreen: 0-lin 1-nonlin 2-no                           
   RPACOR =    1.500    partial core radius                                     
   POMASS =   26.981; ZVAL   =    3.000    mass and valenz                      
   RCORE  =    1.900    outmost cutoff radius                                   
   RWIGS  =    2.650; RWIGS  =    1.402    wigner-seitz radius (au A)           
   ENMAX  =  240.300; ENMIN  =  180.225 eV                                      
   ICORE  =        2    local potential                                         
   LCOR   =        T    correct aug charges                                     
   LPAW   =        T    paw PP                                                  
   EAUG   =  291.052                                                            
   DEXC   =    0.000                                                            
   RMAX   =    1.939    core radius for proj-oper                               
   RAUG   =    1.300    factor for augmentation sphere                          
   RDEP   =    1.966    radius for radial grids                                 
   RDEPT  =    1.856    core radius for aug-charge                              
                                                                                
   Atomic configuration                                                         
    6 entries                                                                   
     n  l   j            E        occ.                                          
     1  0  0.50     -1511.1048   2.0000                                         
     2  0  0.50      -108.1629   2.0000                                         
     2  1  1.50       -69.6402   6.0000                                         
     3  0  0.50        -7.7528   2.0000                                         
     3  1  1.50        -2.7121   1.0000                                         
     3  2  2.50        -2.7212   0.0000                                         
   Description                                                                  
     l       E           TYP  RCUT    TYP  RCUT                                 
     0     -7.7528455     23  1.900                                             
     0     -3.3096929     23  1.900                                             
     1     -2.7120682     23  1.900                                             
     1     13.6058260     23  1.900                                             
     2     -2.7211652      7  1.900                                             
  local pseudopotential read in
  partial core-charges read in
  partial kinetic energy density read in
  atomic valenz-charges read in
  non local Contribution for L=           0  read in
    real space projection operators read in
  non local Contribution for L=           0  read in
    real space projection operators read in
  non local Contribution for L=           1  read in
    real space projection operators read in
  non local Contribution for L=           1  read in
    real space projection operators read in
    PAW grid and wavefunctions read in
 
   number of l-projection  operators is LMAX  =           4
   number of lm-projection operators is LMMAX =           8
 

 ----------------------------------------------------------------------------- 
|                                                                             |
|  ADVICE TO THIS USER RUNNING 'VASP/VAMP'   (HEAR YOUR MASTER'S VOICE ...):  |
|                                                                             |
|      You have a (more or less) 'large supercell' and for larger cells       |
|      it might be more efficient to use real space projection opertators     |
|      So try LREAL= Auto  in the INCAR   file.                               |
|      Mind:          For very  accurate calculation you might also keep the  |
|      reciprocal projection scheme          (i.e. LREAL=.FALSE.)             |
|                                                                             |
 ----------------------------------------------------------------------------- 

  PAW_PBE O 08Apr2002                   :
 energy of atom  1       EATOM= -432.3788
 kinetic energy error for atom=    0.0208 (will be added to EATOM!!)
  PAW_PBE Mg 13Apr2007                  :
 energy of atom  2       EATOM=  -23.0369
 kinetic energy error for atom=    0.0000 (will be added to EATOM!!)
  PAW_PBE Al 04Jan2001                  :
 energy of atom  3       EATOM=  -53.5387
 kinetic energy error for atom=    0.0002 (will be added to EATOM!!)
 
 
 POSCAR: Layer20                                 
  positions in direct lattice
  velocities in cartesian coordinates
 exchange correlation table for  LEXCH =        8
   RHO(1)=    0.500       N(1)  =     2000
   RHO(2)=  100.500       N(2)  =     4000

 VTST: version 3.2, (02/03/18)

 CHAIN: initializing optimizer
 
 OPT: Using VASP Dynamics algorithm
 CHAIN: Read ICHAIN            0
 
 POSCAR: Layer20                                 
  positions in direct lattice
  velocities in cartesian coordinates
 


--------------------------------------------------------------------------------------------------------


 ion  position               nearest neighbor table
   1  0.546  0.454  0.496-  14 2.11  14 2.11  14 2.11  15 2.12  15 2.12  15 2.12
   2  0.513  0.487  0.601-  16 2.11  16 2.11  16 2.11  17 2.12  17 2.12  17 2.12
   3  0.480  0.520  0.706-  18 2.11  18 2.11  18 2.11  19 2.12  19 2.12  19 2.12
   4  0.225  0.775  0.461-  14 2.11  14 2.11  14 2.11  10 2.13  10 2.13  10 2.13
   5  0.868  0.132  0.531-  15 2.11  15 2.11  15 2.11  11 2.12  11 2.12  11 2.12
   6  0.190  0.810  0.566-  11 2.11  11 2.11  11 2.11  16 2.11  16 2.12  16 2.12
   7  0.835  0.165  0.636-  17 2.11  17 2.11  17 2.11  12 2.12  12 2.12  12 2.12
   8  0.157  0.843  0.671-  12 2.11  12 2.11  12 2.11  18 2.12  18 2.12  18 2.12
   9  0.801  0.199  0.741-  19 2.11  19 2.11  19 2.11  13 2.15  13 2.15  13 2.15
  10  0.565  0.435  0.444-   4 2.13   4 2.13   4 2.13  22 2.92  22 2.92  22 2.93  14 3.01  14 3.01
                            14 3.01
  11  0.529  0.471  0.549-   6 2.11   6 2.11   6 2.11   5 2.12   5 2.12   5 2.12  16 2.99  16 2.99
                            15 2.99  15 2.99  15 3.00  16 3.00
  12  0.496  0.504  0.654-   8 2.11   8 2.11   8 2.11   7 2.12   7 2.12   7 2.12  18 3.00  18 3.00
                            17 3.00  17 3.00  17 3.00  18 3.00
  13  0.462  0.538  0.759-   9 2.15   9 2.15   9 2.15  19 3.04  19 3.04  19 3.04
  14  0.886  0.114  0.479-   1 2.11   1 2.11   1 2.11   4 2.11   4 2.11   4 2.11  15 2.99  15 2.99
                            15 2.99  10 3.01  10 3.01  10 3.01
  15  0.207  0.793  0.514-   5 2.11   5 2.11   5 2.11   1 2.12   1 2.12   1 2.12  14 2.99  14 2.99
                            11 2.99  11 2.99  14 2.99  11 3.00
  16  0.851  0.149  0.584-   2 2.11   2 2.11   2 2.11   6 2.11   6 2.12   6 2.12  11 2.99  11 2.99
                            17 3.00  17 3.00  11 3.00  17 3.00
  17  0.174  0.826  0.619-   7 2.11   7 2.11   7 2.11   2 2.12   2 2.12   2 2.12  16 3.00  16 3.00
                            12 3.00  12 3.00  16 3.00  12 3.00
  18  0.818  0.182  0.688-   3 2.11   3 2.11   3 2.11   8 2.12   8 2.12   8 2.12  19 3.00  19 3.00
                            12 3.00  12 3.00  19 3.00  12 3.00
  19  0.141  0.859  0.723-   9 2.11   9 2.11   9 2.11   3 2.12   3 2.12   3 2.12  18 3.00  18 3.00
                            18 3.00  13 3.04  13 3.04  13 3.04
  20  0.013  0.987  0.220-  25 2.83  25 2.84  25 2.84
  21  0.967  0.033  0.315-  23 2.79  26 2.79  23 2.82  23 2.82  26 2.84  26 2.84
  22  0.914  0.086  0.410-  24 2.78  24 2.80  24 2.80  10 2.92  10 2.92  10 2.93
  23  0.652  0.348  0.284-  21 2.79  25 2.80  25 2.82  25 2.82  21 2.82  21 2.82
  24  0.595  0.405  0.379-  22 2.78  22 2.80  22 2.80  26 2.80  26 2.83  26 2.83
  25  0.334  0.666  0.252-  23 2.80  23 2.82  23 2.82  20 2.83  20 2.84  20 2.84
  26  0.280  0.720  0.347-  21 2.79  24 2.80  24 2.83  24 2.83  21 2.84  21 2.84
 
  LATTYP: Found a base centered monoclinic cell.
 ALAT       =     5.1668803401
 B/A-ratio  =     0.5771732778
 C/A-ratio  =    13.6040526009
 COS(beta)  =    -0.0415071345
  
  Lattice vectors:
  
 A1 = (  -2.5829450306,   1.4915994751,  -0.0326812597)
 A2 = (  -0.0002947304,   2.9826884607,  -0.0326812167)
 A3 = (   2.1282810939,  -3.6862798958, -70.1615124364)


Analysis of symmetry for initial positions (statically):
=====================================================================
 Subroutine PRICEL returns:
 Original cell was already a primitive cell.
 

 Routine SETGRP: Setting up the symmetry group for a 
 base centered monoclinic supercell.


 Subroutine GETGRP returns: Found  2 space group operations
 (whereof  2 operations were pure point group operations)
 out of a pool of  4 trial point group operations.


The static configuration has the point symmetry C_1h.


Analysis of symmetry for dynamics (positions and initial velocities):
=====================================================================
 Subroutine PRICEL returns:
 Original cell was already a primitive cell.
 

 Routine SETGRP: Setting up the symmetry group for a 
 base centered monoclinic supercell.


 Subroutine GETGRP returns: Found  2 space group operations
 (whereof  2 operations were pure point group operations)
 out of a pool of  4 trial point group operations.


The dynamic configuration has the point symmetry C_1h.


Analysis of constrained symmetry for selective dynamics:
=====================================================================
 Subroutine PRICEL returns:
 Original cell was already a primitive cell.
 

 Routine SETGRP: Setting up the symmetry group for a 
 base centered monoclinic supercell.


 Subroutine GETGRP returns: Found  2 space group operations
 (whereof  2 operations were pure point group operations)
 out of a pool of  4 trial point group operations.


The constrained configuration has the point symmetry C_1h.


 Subroutine INISYM returns: Found  2 space group operations
 (whereof  2 operations are pure point group operations),
 and found     1 'primitive' translations

 
 
 KPOINTS: K-Spacing Value to Generate K-Mesh: 0.02

Automatic generation of k-mesh.
Space group operators:
 irot       det(A)        alpha          n_x          n_y          n_z        tau_x        tau_y        tau_z
    1     1.000000     0.000002     1.000000     0.000000     0.000000     0.000000     0.000000     0.000000
    2    -1.000000   179.999999     0.866025     0.500001    -0.000000     0.000000     0.000000     0.000000
 
 Subroutine IBZKPT returns following result:
 ===========================================
 
 Found    144 irreducible k-points:
 
 Following reciprocal coordinates:
            Coordinates               Weight
  0.000000  0.000000  0.000000      1.000000
  0.043478  0.000000 -0.000000      4.000000
  0.086957  0.000000 -0.000000      4.000000
  0.130435 -0.000000  0.000000      4.000000
  0.173913 -0.000000  0.000000      4.000000
  0.217391  0.000000  0.000000      4.000000
  0.260870  0.000000  0.000000      4.000000
  0.304348 -0.000000  0.000000      4.000000
  0.347826 -0.000000  0.000000      4.000000
  0.391304 -0.000000  0.000000      4.000000
  0.434783  0.000000  0.000000      4.000000
  0.478261  0.000000  0.000000      4.000000
  0.043478  0.043478  0.000000      2.000000
  0.086957  0.043478  0.000000      4.000000
  0.130435  0.043478  0.000000      4.000000
  0.173913  0.043478 -0.000000      4.000000
  0.217391  0.043478  0.000000      4.000000
  0.260870  0.043478  0.000000      4.000000
  0.304348  0.043478  0.000000      4.000000
  0.347826  0.043478  0.000000      4.000000
  0.391304  0.043478  0.000000      4.000000
  0.434783  0.043478 -0.000000      4.000000
  0.478261  0.043478  0.000000      4.000000
 -0.478261  0.043478 -0.000000      4.000000
 -0.434783  0.043478  0.000000      4.000000
 -0.391304  0.043478  0.000000      4.000000
 -0.347826  0.043478  0.000000      4.000000
 -0.304348  0.043478  0.000000      4.000000
 -0.260870  0.043478 -0.000000      4.000000
 -0.217391  0.043478  0.000000      4.000000
 -0.173913  0.043478  0.000000      4.000000
 -0.130435  0.043478 -0.000000      4.000000
 -0.086957  0.043478  0.000000      4.000000
 -0.043478  0.043478 -0.000000      2.000000
  0.086957  0.086957  0.000000      2.000000
  0.130435  0.086957  0.000000      4.000000
  0.173913  0.086957  0.000000      4.000000
  0.217391  0.086957 -0.000000      4.000000
  0.260870  0.086957  0.000000      4.000000
  0.304348  0.086957  0.000000      4.000000
  0.347826  0.086957 -0.000000      4.000000
  0.391304  0.086957  0.000000      4.000000
  0.434783  0.086957  0.000000      4.000000
  0.478261  0.086957  0.000000      4.000000
 -0.478261  0.086957  0.000000      4.000000
 -0.434783  0.086957  0.000000      4.000000
 -0.391304  0.086957  0.000000      4.000000
 -0.347826  0.086957  0.000000      4.000000
 -0.304348  0.086957 -0.000000      4.000000
 -0.260870  0.086957 -0.000000      4.000000
 -0.217391  0.086957  0.000000      4.000000
 -0.173913  0.086957 -0.000000      4.000000
 -0.130435  0.086957  0.000000      4.000000
 -0.086957  0.086957 -0.000000      2.000000
  0.130435  0.130435 -0.000000      2.000000
  0.173913  0.130435  0.000000      4.000000
  0.217391  0.130435 -0.000000      4.000000
  0.260870  0.130435  0.000000      4.000000
  0.304348  0.130435  0.000000      4.000000
  0.347826  0.130435  0.000000      4.000000
  0.391304  0.130435  0.000000      4.000000
  0.434783  0.130435 -0.000000      4.000000
  0.478261  0.130435  0.000000      4.000000
 -0.478261  0.130435 -0.000000      4.000000
 -0.434783  0.130435  0.000000      4.000000
 -0.391304  0.130435  0.000000      4.000000
 -0.347826  0.130435  0.000000      4.000000
 -0.304348  0.130435 -0.000000      4.000000
 -0.260870  0.130435  0.000000      4.000000
 -0.217391  0.130435  0.000000      4.000000
 -0.173913  0.130435 -0.000000      4.000000
 -0.130435  0.130435  0.000000      2.000000
  0.173913  0.173913  0.000000      2.000000
  0.217391  0.173913  0.000000      4.000000
  0.260870  0.173913  0.000000      4.000000
  0.304348  0.173913  0.000000      4.000000
  0.347826  0.173913 -0.000000      4.000000
  0.391304  0.173913  0.000000      4.000000
  0.434783  0.173913 -0.000000      4.000000
  0.478261  0.173913  0.000000      4.000000
 -0.478261  0.173913  0.000000      4.000000
 -0.434783  0.173913  0.000000      4.000000
 -0.391304  0.173913 -0.000000      4.000000
 -0.347826  0.173913  0.000000      4.000000
 -0.304348  0.173913  0.000000      4.000000
 -0.260870  0.173913 -0.000000      4.000000
 -0.217391  0.173913  0.000000      4.000000
 -0.173913  0.173913 -0.000000      2.000000
  0.217391  0.217391 -0.000000      2.000000
  0.260870  0.217391 -0.000000      4.000000
  0.304348  0.217391  0.000000      4.000000
  0.347826  0.217391  0.000000      4.000000
  0.391304  0.217391  0.000000      4.000000
  0.434783  0.217391  0.000000      4.000000
  0.478261  0.217391  0.000000      4.000000
 -0.478261  0.217391  0.000000      4.000000
 -0.434783  0.217391  0.000000      4.000000
 -0.391304  0.217391 -0.000000      4.000000
 -0.347826  0.217391 -0.000000      4.000000
 -0.304348  0.217391  0.000000      4.000000
 -0.260870  0.217391  0.000000      4.000000
 -0.217391  0.217391  0.000000      2.000000
  0.260870  0.260870  0.000000      2.000000
  0.304348  0.260870  0.000000      4.000000
  0.347826  0.260870  0.000000      4.000000
  0.391304  0.260870  0.000000      4.000000
  0.434783  0.260870  0.000000      4.000000
  0.478261  0.260870 -0.000000      4.000000
 -0.478261  0.260870  0.000000      4.000000
 -0.434783  0.260870  0.000000      4.000000
 -0.391304  0.260870 -0.000000      4.000000
 -0.347826  0.260870 -0.000000      4.000000
 -0.304348  0.260870 -0.000000      4.000000
 -0.260870  0.260870  0.000000      2.000000
  0.304348  0.304348 -0.000000      2.000000
  0.347826  0.304348 -0.000000      4.000000
  0.391304  0.304348 -0.000000      4.000000
  0.434783  0.304348 -0.000000      4.000000
  0.478261  0.304348 -0.000000      4.000000
 -0.478261  0.304348  0.000000      4.000000
 -0.434783  0.304348  0.000000      4.000000
 -0.391304  0.304348 -0.000000      4.000000
 -0.347826  0.304348  0.000000      4.000000
 -0.304348  0.304348 -0.000000      2.000000
  0.347826  0.347826  0.000000      2.000000
  0.391304  0.347826  0.000000      4.000000
  0.434783  0.347826  0.000000      4.000000
  0.478261  0.347826  0.000000      4.000000
 -0.478261  0.347826  0.000000      4.000000
 -0.434783  0.347826  0.000000      4.000000
 -0.391304  0.347826  0.000000      4.000000
 -0.347826  0.347826 -0.000000      2.000000
  0.391304  0.391304 -0.000000      2.000000
  0.434783  0.391304 -0.000000      4.000000
  0.478261  0.391304 -0.000000      4.000000
 -0.478261  0.391304  0.000000      4.000000
 -0.434783  0.391304 -0.000000      4.000000
 -0.391304  0.391304 -0.000000      2.000000
  0.434783  0.434783 -0.000000      2.000000
  0.478261  0.434783  0.000000      4.000000
 -0.478261  0.434783  0.000000      4.000000
 -0.434783  0.434783  0.000000      2.000000
  0.478261  0.478261 -0.000000      2.000000
 -0.478261  0.478261 -0.000000      2.000000
 
 Following cartesian coordinates:
            Coordinates               Weight
  0.000000  0.000000  0.000000      1.000000
  0.016834  0.000000 -0.000109      4.000000
  0.033669  0.000001 -0.000218      4.000000
  0.050503  0.000001 -0.000327      4.000000
  0.067338  0.000002 -0.000436      4.000000
  0.084172  0.000002 -0.000545      4.000000
  0.101007  0.000003 -0.000654      4.000000
  0.117841  0.000003 -0.000763      4.000000
  0.134676  0.000004 -0.000872      4.000000
  0.151510  0.000004 -0.000981      4.000000
  0.168345  0.000005 -0.001091      4.000000
  0.185179  0.000005 -0.001200      4.000000
  0.025252  0.014579 -0.000000      2.000000
  0.042087  0.014580 -0.000109      4.000000
  0.058921  0.014580 -0.000218      4.000000
  0.075756  0.014581 -0.000327      4.000000
  0.092590  0.014581 -0.000436      4.000000
  0.109424  0.014582 -0.000545      4.000000
  0.126259  0.014582 -0.000654      4.000000
  0.143093  0.014583 -0.000763      4.000000
  0.159928  0.014583 -0.000872      4.000000
  0.176762  0.014584 -0.000981      4.000000
  0.193597  0.014584 -0.001091      4.000000
 -0.176762  0.014574  0.001309      4.000000
 -0.159927  0.014574  0.001200      4.000000
 -0.143093  0.014575  0.001091      4.000000
 -0.126258  0.014575  0.000981      4.000000
 -0.109424  0.014576  0.000872      4.000000
 -0.092589  0.014576  0.000763      4.000000
 -0.075755  0.014577  0.000654      4.000000
 -0.058920  0.014577  0.000545      4.000000
 -0.042086  0.014577  0.000436      4.000000
 -0.025251  0.014578  0.000327      4.000000
 -0.008417  0.014578  0.000218      2.000000
  0.050504  0.029159 -0.000000      2.000000
  0.067339  0.029159 -0.000109      4.000000
  0.084173  0.029160 -0.000218      4.000000
  0.101008  0.029160 -0.000327      4.000000
  0.117842  0.029161 -0.000436      4.000000
  0.134677  0.029161 -0.000545      4.000000
  0.151511  0.029162 -0.000654      4.000000
  0.168346  0.029162 -0.000763      4.000000
  0.185180  0.029162 -0.000872      4.000000
  0.202015  0.029163 -0.000981      4.000000
 -0.168344  0.029153  0.001418      4.000000
 -0.151509  0.029153  0.001309      4.000000
 -0.134675  0.029154  0.001200      4.000000
 -0.117841  0.029154  0.001091      4.000000
 -0.101006  0.029155  0.000981      4.000000
 -0.084172  0.029155  0.000872      4.000000
 -0.067337  0.029155  0.000763      4.000000
 -0.050503  0.029156  0.000654      4.000000
 -0.033668  0.029156  0.000545      4.000000
 -0.016834  0.029157  0.000436      2.000000
  0.075756  0.043738 -0.000000      2.000000
  0.092591  0.043739 -0.000109      4.000000
  0.109425  0.043739 -0.000218      4.000000
  0.126260  0.043740 -0.000327      4.000000
  0.143094  0.043740 -0.000436      4.000000
  0.159929  0.043740 -0.000545      4.000000
  0.176763  0.043741 -0.000654      4.000000
  0.193598  0.043741 -0.000763      4.000000
  0.210432  0.043742 -0.000872      4.000000
 -0.159926  0.043732  0.001527      4.000000
 -0.143092  0.043732  0.001418      4.000000
 -0.126257  0.043732  0.001309      4.000000
 -0.109423  0.043733  0.001200      4.000000
 -0.092588  0.043733  0.001091      4.000000
 -0.075754  0.043734  0.000981      4.000000
 -0.058919  0.043734  0.000872      4.000000
 -0.042085  0.043735  0.000763      4.000000
 -0.025250  0.043735  0.000654      2.000000
  0.101008  0.058317 -0.000000      2.000000
  0.117843  0.058318 -0.000109      4.000000
  0.134677  0.058318 -0.000218      4.000000
  0.151512  0.058319 -0.000327      4.000000
  0.168346  0.058319 -0.000436      4.000000
  0.185181  0.058320 -0.000545      4.000000
  0.202015  0.058320 -0.000654      4.000000
  0.218850  0.058321 -0.000763      4.000000
 -0.151509  0.058310  0.001636      4.000000
 -0.134674  0.058311  0.001527      4.000000
 -0.117840  0.058311  0.001418      4.000000
 -0.101005  0.058312  0.001309      4.000000
 -0.084171  0.058312  0.001200      4.000000
 -0.067336  0.058313  0.001091      4.000000
 -0.050502  0.058313  0.000981      4.000000
 -0.033667  0.058314  0.000872      2.000000
  0.126261  0.072897 -0.000000      2.000000
  0.143095  0.072897 -0.000109      4.000000
  0.159930  0.072898 -0.000218      4.000000
  0.176764  0.072898 -0.000327      4.000000
  0.193598  0.072899 -0.000436      4.000000
  0.210433  0.072899 -0.000545      4.000000
  0.227267  0.072900 -0.000654      4.000000
 -0.143091  0.072889  0.001745      4.000000
 -0.126257  0.072890  0.001636      4.000000
 -0.109422  0.072890  0.001527      4.000000
 -0.092588  0.072891  0.001418      4.000000
 -0.075753  0.072891  0.001309      4.000000
 -0.058919  0.072892  0.001200      4.000000
 -0.042084  0.072892  0.001091      2.000000
  0.151513  0.087476 -0.000000      2.000000
  0.168347  0.087477 -0.000109      4.000000
  0.185182  0.087477 -0.000218      4.000000
  0.202016  0.087478 -0.000327      4.000000
  0.218851  0.087478 -0.000436      4.000000
  0.235685  0.087479 -0.000545      4.000000
 -0.134673  0.087468  0.001854      4.000000
 -0.117839  0.087469  0.001745      4.000000
 -0.101004  0.087469  0.001636      4.000000
 -0.084170  0.087470  0.001527      4.000000
 -0.067335  0.087470  0.001418      4.000000
 -0.050501  0.087471  0.001309      2.000000
  0.176765  0.102056 -0.000000      2.000000
  0.193599  0.102056 -0.000109      4.000000
  0.210434  0.102056 -0.000218      4.000000
  0.227268  0.102057 -0.000327      4.000000
  0.244103  0.102057 -0.000436      4.000000
 -0.126256  0.102047  0.001963      4.000000
 -0.109421  0.102048  0.001854      4.000000
 -0.092587  0.102048  0.001745      4.000000
 -0.075752  0.102049  0.001636      4.000000
 -0.058918  0.102049  0.001527      2.000000
  0.202017  0.116635 -0.000000      2.000000
  0.218851  0.116635 -0.000109      4.000000
  0.235686  0.116636 -0.000218      4.000000
  0.252520  0.116636 -0.000327      4.000000
 -0.117838  0.116626  0.002072      4.000000
 -0.101004  0.116626  0.001963      4.000000
 -0.084169  0.116627  0.001854      4.000000
 -0.067335  0.116627  0.001745      2.000000
  0.227269  0.131214 -0.000000      2.000000
  0.244104  0.131215 -0.000109      4.000000
  0.260938  0.131215 -0.000218      4.000000
 -0.109420  0.131205  0.002181      4.000000
 -0.092586  0.131205  0.002072      4.000000
 -0.075751  0.131206  0.001963      2.000000
  0.252521  0.145794 -0.000000      2.000000
  0.269356  0.145794 -0.000109      4.000000
 -0.101003  0.145784  0.002290      4.000000
 -0.084168  0.145784  0.002181      2.000000
  0.277773  0.160373 -0.000000      2.000000
 -0.092585  0.160363  0.002399      2.000000
 
 TETIRR: Found    804 inequivalent tetrahedra from     3174


--------------------------------------------------------------------------------------------------------




 Dimension of arrays:
   k-points           NKPTS =    144   k-points in BZ     NKDIM =    144   number of bands    NBANDS=     65
   number of dos      NEDOS =    301   number of ions     NIONS =     26
   non local maximal  LDIM  =      5   non local SUM 2l+1 LMDIM =     13
   total plane-waves  NPLWV = 311040
   max r-space proj   IRMAX =      1   max aug-charges    IRDMAX= 195592
   dimension x,y,z NGX =    24 NGY =   24 NGZ =  540
   dimension x,y,z NGXF=    48 NGYF=   48 NGZF= 1080
   support grid    NGXF=    96 NGYF=   96 NGZF= 2160
   ions per type =               9  10   7
   NGX,Y,Z   is equivalent  to a cutoff of  13.38, 13.38, 12.78 a.u.
   NGXF,Y,Z  is equivalent  to a cutoff of  26.75, 26.75, 25.56 a.u.

 SYSTEM =  unknown system                          
 POSCAR =  Layer20                                 

 Startparameter for this run:
   NWRITE =      2    write-flag & timer
   PREC   = accura    normal or accurate (medium, high low for compatibility)
   ISTART =      0    job   : 0-new  1-cont  2-samecut
   ICHARG =      2    charge: 1-file 2-atom 10-const
   ISPIN  =      1    spin polarized calculation?
   LNONCOLLINEAR =      F non collinear calculations
   LSORBIT =      F    spin-orbit coupling
   INIWAV =      1    electr: 0-lowe 1-rand  2-diag
   LASPH  =      F    aspherical Exc in radial PAW
   METAGGA=      F    non-selfconsistent MetaGGA calc.

 Electronic Relaxation 1
   ENCUT  =  520.0 eV  38.22 Ry    6.18 a.u.   5.55  5.55130.59*2*pi/ulx,y,z
   ENINI  =  520.0     initial cutoff
   ENAUG  =  605.4 eV  augmentation charge cutoff
   NELM   =    100;   NELMIN=  6; NELMDL=  0     # of ELM steps 
   EDIFF  = 0.1E-04   stopping-criterion for ELM
   LREAL  =      F    real-space projection
   NLSPLINE    = F    spline interpolate recip. space projectors
   LCOMPAT=      F    compatible to vasp.4.4
   GGA_COMPAT  = T    GGA compatible to vasp.4.4-vasp.4.6
   LMAXPAW     = -100 max onsite density
   LMAXMIX     =    2 max onsite mixed and CHGCAR
   VOSKOWN=      0    Vosko Wilk Nusair interpolation
   ROPT   =    0.00000   0.00000   0.00000
 Ionic relaxation
   EDIFFG = -.2E-01   stopping-criterion for IOM
   NSW    =      0    number of steps for IOM
   NBLOCK =      1;   KBLOCK =      1    inner block; outer block 
   IBRION =     -1    ionic relax: 0-MD 1-quasi-New 2-CG
   NFREE  =      0    steps in history (QN), initial steepest desc. (CG)
   ISIF   =      4    stress and relaxation
   IWAVPR =     10    prediction:  0-non 1-charg 2-wave 3-comb
   ISYM   =      2    0-nonsym 1-usesym 2-fastsym
   LCORR  =      T    Harris-Foulkes like correction to forces

   POTIM  = 0.5000    time-step for ionic-motion
   TEIN   =    0.0    initial temperature
   TEBEG  =    0.0;   TEEND  =   0.0 temperature during run
   SMASS  =  -3.00    Nose mass-parameter (am)
   estimated Nose-frequenzy (Omega)   =  0.10E-29 period in steps =****** mass=  -0.203E-27a.u.
   SCALEE = 1.0000    scale energy and forces
   NPACO  =    256;   APACO  = 16.0  distance and # of slots for P.C.
   PSTRESS=    0.0 pullay stress

  Mass of Ions in am
   POMASS =  16.00 24.30 26.98
  Ionic Valenz
   ZVAL   =   6.00  2.00  3.00
  Atomic Wigner-Seitz radii
   RWIGS  =  -1.00 -1.00 -1.00
  virtual crystal weights 
   VCA    =   1.00  1.00  1.00
   NELECT =      95.0000    total number of electrons
   NUPDOWN=      -1.0000    fix difference up-down

 DOS related values:
   EMIN   =  10.00;   EMAX   =-10.00  energy-range for DOS
   EFERMI =   0.00
   ISMEAR =    -5;   SIGMA  =   0.05  broadening in eV -4-tet -1-fermi 0-gaus

 Electronic relaxation 2 (details)
   IALGO  =     38    algorithm
   LDIAG  =      T    sub-space diagonalisation (order eigenvalues)
   LSUBROT=      F    optimize rotation matrix (better conditioning)
   TURBO    =      0    0=normal 1=particle mesh
   IRESTART =      0    0=no restart 2=restart with 2 vectors
   NREBOOT  =      0    no. of reboots
   NMIN     =      0    reboot dimension
   EREF     =   0.00    reference energy to select bands
   IMIX   =      4    mixing-type and parameters
     AMIX     =   0.40;   BMIX     =  1.00
     AMIX_MAG =   1.60;   BMIX_MAG =  1.00
     AMIN     =   0.01
     WC   =   100.;   INIMIX=   1;  MIXPRE=   1;  MAXMIX= -45

 Intra band minimization:
   WEIMIN = 0.0000     energy-eigenvalue tresh-hold
   EBREAK =  0.38E-07  absolut break condition
   DEPER  =   0.30     relativ break condition  

   TIME   =   0.40     timestep for ELM

  volume/ion in A,a.u.               =      20.80       140.40
  Fermi-wavevector in a.u.,A,eV,Ry     =   0.916796  1.732493 11.435892  0.840514
  Thomas-Fermi vector in A             =   2.041692
 
 Write flags
   LWAVE        =      F    write WAVECAR
   LDOWNSAMPLE  =      F    k-point downsampling of WAVECAR
   LCHARG       =      T    write CHGCAR
   LVTOT        =      F    write LOCPOT, total local potential
   LVHAR        =      F    write LOCPOT, Hartree potential only
   LELF         =      F    write electronic localiz. function (ELF)
   LORBIT       =      0    0 simple, 1 ext, 2 COOP (PROOUT), +10 PAW based schemes


 Dipole corrections
   LMONO  =      F    monopole corrections only (constant potential shift)
   LDIPOL =      F    correct potential (dipole corrections)
   IDIPOL =      0    1-x, 2-y, 3-z, 4-all directions 
   EPSILON=  1.0000000 bulk dielectric constant

 Exchange correlation treatment:
   GGA     =    --    GGA type
   LEXCH   =     8    internal setting for exchange type
   VOSKOWN=      0    Vosko Wilk Nusair interpolation
   LHFCALC =     F    Hartree Fock is set to
   LHFONE  =     F    Hartree Fock one center treatment
   AEXX    =    0.0000 exact exchange contribution

 Linear response parameters
   LEPSILON=     F    determine dielectric tensor
   LRPA    =     F    only Hartree local field effects (RPA)
   LNABLA  =     F    use nabla operator in PAW spheres
   LVEL    =     F    velocity operator in full k-point grid
   LINTERFAST=   F  fast interpolation
   KINTER  =     0    interpolate to denser k-point grid
   CSHIFT  =0.1000    complex shift for real part using Kramers Kronig
   OMEGAMAX=  -1.0    maximum frequency
   DEG_THRESHOLD= 0.2000000E-02 threshold for treating states as degnerate
   RTIME   =   -0.100 relaxation time in fs
  (WPLASMAI=    0.000 imaginary part of plasma frequency in eV, 0.658/RTIME)
   DFIELD  = 0.0000000 0.0000000 0.0000000 field for delta impulse in time
 
 Orbital magnetization related:
   ORBITALMAG=     F  switch on orbital magnetization
   LCHIMAG   =     F  perturbation theory with respect to B field
   DQ        =  0.001000  dq finite difference perturbation B field
   LLRAUG    =     F  two centre corrections for induced B field



--------------------------------------------------------------------------------------------------------


 Static calculation
 charge density and potential will be updated during run
 non-spin polarized calculation
 Variant of blocked Davidson
 Davidson routine will perform the subspace rotation
 perform sub-space diagonalisation
    after iterative eigenvector-optimisation
 modified Broyden-mixing scheme, WC =      100.0
 initial mixing is a Kerker type mixing with AMIX =  0.4000 and BMIX =      1.0000
 Hartree-type preconditioning will be used
 using additional bands           17
 reciprocal scheme for non local part
 use partial core corrections
 calculate Harris-corrections to forces 
   (improved forces if not selfconsistent)
 use gradient corrections 
 use of overlap-Matrix (Vanderbilt PP)
 Fermi weights with tetrahedron method with Bloechl corrections


--------------------------------------------------------------------------------------------------------


  energy-cutoff  :      520.00
  volume of cell :      540.92
      direct lattice vectors                 reciprocal lattice vectors
     2.582945031 -1.491599475  0.032681260     0.387192928  0.000010777 -0.002508275
    -0.000294730  2.982688461 -0.032681217     0.193605797  0.335314616  0.002508270
     0.454958667 -0.788008040 70.226874913    -0.000090089  0.000156039  0.014241897

  length of vectors
     2.982874803  2.982867513 70.232769446     0.387201052  0.387201998  0.014243037


 
 k-points in units of 2pi/SCALE and weight: K-Spacing Value to Generate K-Mesh: 0.02
   0.00000000  0.00000000  0.00000000       0.002
   0.01683448  0.00000047 -0.00010906       0.008
   0.03366895  0.00000094 -0.00021811       0.008
   0.05050343  0.00000141 -0.00032717       0.008
   0.06733790  0.00000187 -0.00043622       0.008
   0.08417238  0.00000234 -0.00054528       0.008
   0.10100685  0.00000281 -0.00065433       0.008
   0.11784133  0.00000328 -0.00076339       0.008
   0.13467580  0.00000375 -0.00087244       0.008
   0.15151028  0.00000422 -0.00098150       0.008
   0.16834475  0.00000469 -0.00109055       0.008
   0.18517923  0.00000515 -0.00119961       0.008
   0.02525212  0.01457936 -0.00000000       0.004
   0.04208659  0.01457983 -0.00010906       0.008
   0.05892107  0.01458030 -0.00021811       0.008
   0.07575554  0.01458077 -0.00032717       0.008
   0.09259002  0.01458124 -0.00043622       0.008
   0.10942449  0.01458171 -0.00054528       0.008
   0.12625897  0.01458218 -0.00065433       0.008
   0.14309344  0.01458264 -0.00076339       0.008
   0.15992792  0.01458311 -0.00087244       0.008
   0.17676239  0.01458358 -0.00098150       0.008
   0.19359687  0.01458405 -0.00109055       0.008
  -0.17676158  0.01457374  0.00130866       0.008
  -0.15992711  0.01457421  0.00119961       0.008
  -0.14309263  0.01457468  0.00109055       0.008
  -0.12625816  0.01457515  0.00098150       0.008
  -0.10942368  0.01457562  0.00087244       0.008
  -0.09258921  0.01457608  0.00076339       0.008
  -0.07575473  0.01457655  0.00065433       0.008
  -0.05892026  0.01457702  0.00054528       0.008
  -0.04208578  0.01457749  0.00043622       0.008
  -0.02525131  0.01457796  0.00032717       0.008
  -0.00841683  0.01457843  0.00021811       0.004
   0.05050424  0.02915873 -0.00000000       0.004
   0.06733871  0.02915920 -0.00010906       0.008
   0.08417319  0.02915967 -0.00021811       0.008
   0.10100766  0.02916014 -0.00032717       0.008
   0.11784214  0.02916060 -0.00043622       0.008
   0.13467661  0.02916107 -0.00054528       0.008
   0.15151109  0.02916154 -0.00065433       0.008
   0.16834556  0.02916201 -0.00076339       0.008
   0.18518004  0.02916248 -0.00087244       0.008
   0.20201451  0.02916295 -0.00098150       0.008
  -0.16834394  0.02915264  0.00141772       0.008
  -0.15150946  0.02915311  0.00130866       0.008
  -0.13467499  0.02915358  0.00119961       0.008
  -0.11784051  0.02915404  0.00109055       0.008
  -0.10100604  0.02915451  0.00098150       0.008
  -0.08417156  0.02915498  0.00087244       0.008
  -0.06733709  0.02915545  0.00076339       0.008
  -0.05050261  0.02915592  0.00065433       0.008
  -0.03366814  0.02915639  0.00054528       0.008
  -0.01683366  0.02915686  0.00043622       0.004
   0.07575636  0.04373809 -0.00000000       0.004
   0.09259083  0.04373856 -0.00010906       0.008
   0.10942531  0.04373903 -0.00021811       0.008
   0.12625978  0.04373950 -0.00032717       0.008
   0.14309426  0.04373997 -0.00043622       0.008
   0.15992873  0.04374044 -0.00054528       0.008
   0.17676321  0.04374091 -0.00065433       0.008
   0.19359768  0.04374137 -0.00076339       0.008
   0.21043216  0.04374184 -0.00087244       0.008
  -0.15992630  0.04373153  0.00152678       0.008
  -0.14309182  0.04373200  0.00141772       0.008
  -0.12625735  0.04373247  0.00130866       0.008
  -0.10942287  0.04373294  0.00119961       0.008
  -0.09258840  0.04373341  0.00109055       0.008
  -0.07575392  0.04373388  0.00098150       0.008
  -0.05891945  0.04373435  0.00087244       0.008
  -0.04208497  0.04373481  0.00076339       0.008
  -0.02525050  0.04373528  0.00065433       0.004
   0.10100847  0.05831746 -0.00000000       0.004
   0.11784295  0.05831793 -0.00010906       0.008
   0.13467742  0.05831840 -0.00021811       0.008
   0.15151190  0.05831887 -0.00032717       0.008
   0.16834637  0.05831933 -0.00043622       0.008
   0.18518085  0.05831980 -0.00054528       0.008
   0.20201532  0.05832027 -0.00065433       0.008
   0.21884980  0.05832074 -0.00076339       0.008
  -0.15150865  0.05831043  0.00163583       0.008
  -0.13467418  0.05831090  0.00152678       0.008
  -0.11783970  0.05831137  0.00141772       0.008
  -0.10100523  0.05831184  0.00130866       0.008
  -0.08417075  0.05831231  0.00119961       0.008
  -0.06733628  0.05831277  0.00109055       0.008
  -0.05050180  0.05831324  0.00098150       0.008
  -0.03366733  0.05831371  0.00087244       0.004
   0.12626059  0.07289682 -0.00000000       0.004
   0.14309507  0.07289729 -0.00010906       0.008
   0.15992954  0.07289776 -0.00021811       0.008
   0.17676402  0.07289823 -0.00032717       0.008
   0.19359849  0.07289870 -0.00043622       0.008
   0.21043297  0.07289917 -0.00054528       0.008
   0.22726744  0.07289964 -0.00065433       0.008
  -0.14309101  0.07288933  0.00174489       0.008
  -0.12625653  0.07288980  0.00163583       0.008
  -0.10942206  0.07289026  0.00152677       0.008
  -0.09258758  0.07289073  0.00141772       0.008
  -0.07575311  0.07289120  0.00130866       0.008
  -0.05891863  0.07289167  0.00119961       0.008
  -0.04208416  0.07289214  0.00109055       0.004
   0.15151271  0.08747619 -0.00000000       0.004
   0.16834719  0.08747666 -0.00010906       0.008
   0.18518166  0.08747713 -0.00021811       0.008
   0.20201614  0.08747760 -0.00032717       0.008
   0.21885061  0.08747806 -0.00043622       0.008
   0.23568509  0.08747853 -0.00054528       0.008
  -0.13467337  0.08746822  0.00185394       0.008
  -0.11783889  0.08746869  0.00174489       0.008
  -0.10100442  0.08746916  0.00163583       0.008
  -0.08416994  0.08746963  0.00152677       0.008
  -0.06733547  0.08747010  0.00141772       0.008
  -0.05050099  0.08747057  0.00130866       0.004
   0.17676483  0.10205555 -0.00000000       0.004
   0.19359930  0.10205602 -0.00010906       0.008
   0.21043378  0.10205649 -0.00021811       0.008
   0.22726825  0.10205696 -0.00032717       0.008
   0.24410273  0.10205743 -0.00043622       0.008
  -0.12625572  0.10204712  0.00196300       0.008
  -0.10942125  0.10204759  0.00185394       0.008
  -0.09258677  0.10204806  0.00174489       0.008
  -0.07575230  0.10204853  0.00163583       0.008
  -0.05891782  0.10204899  0.00152677       0.004
   0.20201695  0.11663492 -0.00000000       0.004
   0.21885142  0.11663539 -0.00010906       0.008
   0.23568590  0.11663586 -0.00021811       0.008
   0.25252037  0.11663632 -0.00032717       0.008
  -0.11783808  0.11662602  0.00207205       0.008
  -0.10100360  0.11662649  0.00196300       0.008
  -0.08416913  0.11662695  0.00185394       0.008
  -0.06733465  0.11662742  0.00174489       0.004
   0.22726907  0.13121428 -0.00000000       0.004
   0.24410354  0.13121475 -0.00010906       0.008
   0.26093802  0.13121522 -0.00021811       0.008
  -0.10942044  0.13120491  0.00218111       0.008
  -0.09258596  0.13120538  0.00207205       0.008
  -0.07575149  0.13120585  0.00196300       0.004
   0.25252118  0.14579365 -0.00000000       0.004
   0.26935566  0.14579412 -0.00010906       0.008
  -0.10100279  0.14578381  0.00229016       0.008
  -0.08416832  0.14578428  0.00218111       0.004
   0.27777330  0.16037301 -0.00000000       0.004
  -0.09258515  0.16036271  0.00239922       0.004
 
 k-points in reciprocal lattice and weights: K-Spacing Value to Generate K-Mesh: 0.02
   0.00000000  0.00000000  0.00000000       0.002
   0.04347826  0.00000000 -0.00000000       0.008
   0.08695652  0.00000000 -0.00000000       0.008
   0.13043478 -0.00000000  0.00000000       0.008
   0.17391304 -0.00000000  0.00000000       0.008
   0.21739130  0.00000000  0.00000000       0.008
   0.26086957  0.00000000  0.00000000       0.008
   0.30434783 -0.00000000  0.00000000       0.008
   0.34782609 -0.00000000  0.00000000       0.008
   0.39130435 -0.00000000  0.00000000       0.008
   0.43478261  0.00000000  0.00000000       0.008
   0.47826087  0.00000000  0.00000000       0.008
   0.04347826  0.04347826  0.00000000       0.004
   0.08695652  0.04347826  0.00000000       0.008
   0.13043478  0.04347826  0.00000000       0.008
   0.17391304  0.04347826 -0.00000000       0.008
   0.21739130  0.04347826  0.00000000       0.008
   0.26086957  0.04347826  0.00000000       0.008
   0.30434783  0.04347826  0.00000000       0.008
   0.34782609  0.04347826  0.00000000       0.008
   0.39130435  0.04347826  0.00000000       0.008
   0.43478261  0.04347826 -0.00000000       0.008
   0.47826087  0.04347826  0.00000000       0.008
  -0.47826087  0.04347826 -0.00000000       0.008
  -0.43478261  0.04347826  0.00000000       0.008
  -0.39130435  0.04347826  0.00000000       0.008
  -0.34782609  0.04347826  0.00000000       0.008
  -0.30434783  0.04347826  0.00000000       0.008
  -0.26086957  0.04347826 -0.00000000       0.008
  -0.21739130  0.04347826  0.00000000       0.008
  -0.17391304  0.04347826  0.00000000       0.008
  -0.13043478  0.04347826 -0.00000000       0.008
  -0.08695652  0.04347826  0.00000000       0.008
  -0.04347826  0.04347826 -0.00000000       0.004
   0.08695652  0.08695652  0.00000000       0.004
   0.13043478  0.08695652  0.00000000       0.008
   0.17391304  0.08695652  0.00000000       0.008
   0.21739130  0.08695652 -0.00000000       0.008
   0.26086957  0.08695652  0.00000000       0.008
   0.30434783  0.08695652  0.00000000       0.008
   0.34782609  0.08695652 -0.00000000       0.008
   0.39130435  0.08695652  0.00000000       0.008
   0.43478261  0.08695652  0.00000000       0.008
   0.47826087  0.08695652  0.00000000       0.008
  -0.47826087  0.08695652  0.00000000       0.008
  -0.43478261  0.08695652  0.00000000       0.008
  -0.39130435  0.08695652  0.00000000       0.008
  -0.34782609  0.08695652  0.00000000       0.008
  -0.30434783  0.08695652 -0.00000000       0.008
  -0.26086957  0.08695652 -0.00000000       0.008
  -0.21739130  0.08695652  0.00000000       0.008
  -0.17391304  0.08695652 -0.00000000       0.008
  -0.13043478  0.08695652  0.00000000       0.008
  -0.08695652  0.08695652 -0.00000000       0.004
   0.13043478  0.13043478 -0.00000000       0.004
   0.17391304  0.13043478  0.00000000       0.008
   0.21739130  0.13043478 -0.00000000       0.008
   0.26086957  0.13043478  0.00000000       0.008
   0.30434783  0.13043478  0.00000000       0.008
   0.34782609  0.13043478  0.00000000       0.008
   0.39130435  0.13043478  0.00000000       0.008
   0.43478261  0.13043478 -0.00000000       0.008
   0.47826087  0.13043478  0.00000000       0.008
  -0.47826087  0.13043478 -0.00000000       0.008
  -0.43478261  0.13043478  0.00000000       0.008
  -0.39130435  0.13043478  0.00000000       0.008
  -0.34782609  0.13043478  0.00000000       0.008
  -0.30434783  0.13043478 -0.00000000       0.008
  -0.26086957  0.13043478  0.00000000       0.008
  -0.21739130  0.13043478  0.00000000       0.008
  -0.17391304  0.13043478 -0.00000000       0.008
  -0.13043478  0.13043478  0.00000000       0.004
   0.17391304  0.17391304  0.00000000       0.004
   0.21739130  0.17391304  0.00000000       0.008
   0.26086957  0.17391304  0.00000000       0.008
   0.30434783  0.17391304  0.00000000       0.008
   0.34782609  0.17391304 -0.00000000       0.008
   0.39130435  0.17391304  0.00000000       0.008
   0.43478261  0.17391304 -0.00000000       0.008
   0.47826087  0.17391304  0.00000000       0.008
  -0.47826087  0.17391304  0.00000000       0.008
  -0.43478261  0.17391304  0.00000000       0.008
  -0.39130435  0.17391304 -0.00000000       0.008
  -0.34782609  0.17391304  0.00000000       0.008
  -0.30434783  0.17391304  0.00000000       0.008
  -0.26086957  0.17391304 -0.00000000       0.008
  -0.21739130  0.17391304  0.00000000       0.008
  -0.17391304  0.17391304 -0.00000000       0.004
   0.21739130  0.21739130 -0.00000000       0.004
   0.26086957  0.21739130 -0.00000000       0.008
   0.30434783  0.21739130  0.00000000       0.008
   0.34782609  0.21739130  0.00000000       0.008
   0.39130435  0.21739130  0.00000000       0.008
   0.43478261  0.21739130  0.00000000       0.008
   0.47826087  0.21739130  0.00000000       0.008
  -0.47826087  0.21739130  0.00000000       0.008
  -0.43478261  0.21739130  0.00000000       0.008
  -0.39130435  0.21739130 -0.00000000       0.008
  -0.34782609  0.21739130 -0.00000000       0.008
  -0.30434783  0.21739130  0.00000000       0.008
  -0.26086957  0.21739130  0.00000000       0.008
  -0.21739130  0.21739130  0.00000000       0.004
   0.26086957  0.26086957  0.00000000       0.004
   0.30434783  0.26086957  0.00000000       0.008
   0.34782609  0.26086957  0.00000000       0.008
   0.39130435  0.26086957  0.00000000       0.008
   0.43478261  0.26086957  0.00000000       0.008
   0.47826087  0.26086957 -0.00000000       0.008
  -0.47826087  0.26086957  0.00000000       0.008
  -0.43478261  0.26086957  0.00000000       0.008
  -0.39130435  0.26086957 -0.00000000       0.008
  -0.34782609  0.26086957 -0.00000000       0.008
  -0.30434783  0.26086957 -0.00000000       0.008
  -0.26086957  0.26086957  0.00000000       0.004
   0.30434783  0.30434783 -0.00000000       0.004
   0.34782609  0.30434783 -0.00000000       0.008
   0.39130435  0.30434783 -0.00000000       0.008
   0.43478261  0.30434783 -0.00000000       0.008
   0.47826087  0.30434783 -0.00000000       0.008
  -0.47826087  0.30434783  0.00000000       0.008
  -0.43478261  0.30434783  0.00000000       0.008
  -0.39130435  0.30434783 -0.00000000       0.008
  -0.34782609  0.30434783  0.00000000       0.008
  -0.30434783  0.30434783 -0.00000000       0.004
   0.34782609  0.34782609  0.00000000       0.004
   0.39130435  0.34782609  0.00000000       0.008
   0.43478261  0.34782609  0.00000000       0.008
   0.47826087  0.34782609  0.00000000       0.008
  -0.47826087  0.34782609  0.00000000       0.008
  -0.43478261  0.34782609  0.00000000       0.008
  -0.39130435  0.34782609  0.00000000       0.008
  -0.34782609  0.34782609 -0.00000000       0.004
   0.39130435  0.39130435 -0.00000000       0.004
   0.43478261  0.39130435 -0.00000000       0.008
   0.47826087  0.39130435 -0.00000000       0.008
  -0.47826087  0.39130435  0.00000000       0.008
  -0.43478261  0.39130435 -0.00000000       0.008
  -0.39130435  0.39130435 -0.00000000       0.004
   0.43478261  0.43478261 -0.00000000       0.004
   0.47826087  0.43478261  0.00000000       0.008
  -0.47826087  0.43478261  0.00000000       0.008
  -0.43478261  0.43478261  0.00000000       0.004
   0.47826087  0.47826087 -0.00000000       0.004
  -0.47826087  0.47826087 -0.00000000       0.004
 
 position of ions in fractional coordinates (direct lattice) 
   0.54636425  0.45363573  0.49624980
   0.51261049  0.48738950  0.60097638
   0.47959520  0.52040481  0.70590283
   0.22534682  0.77465316  0.46143085
   0.86793780  0.13206218  0.53114177
   0.19014054  0.80985945  0.56604043
   0.83494539  0.16505461  0.63595439
   0.15725279  0.84274722  0.67092964
   0.80148572  0.19851429  0.74080647
   0.56513163  0.43486835  0.44365880
   0.52888563  0.47111436  0.54867095
   0.49602516  0.50397484  0.65352229
   0.46203504  0.53796498  0.75914446
   0.88578450  0.11421549  0.47888429
   0.20706858  0.79293140  0.51376907
   0.85134200  0.14865799  0.58358384
   0.17375012  0.82624988  0.61854445
   0.81839933  0.18160068  0.68849589
   0.14056960  0.85943041  0.72345472
   0.01320141  0.98679858  0.21971155
   0.96712676  0.03287326  0.31514780
   0.91356602  0.08643401  0.41000243
   0.65219587  0.34780413  0.28350851
   0.59520876  0.40479127  0.37873796
   0.33440296  0.66559704  0.25183657
   0.27962763  0.72037239  0.34695486
 
 position of ions in cartesian coordinates  (Angst):
   1.63686828  0.14704860 34.85310316
   1.59732048  0.21554730 42.20551704
   1.55977128  0.28058435 49.57201640
   0.79176210  1.61081063 32.38689430
   2.48344426 -1.31925920 37.32447582
   0.74840887  1.68590049 39.73099718
   2.44590237 -1.25423481 44.68298214
   0.71117217  1.75039628 47.09488896
   2.40717138 -1.18715086 52.04422928
   1.66142219  0.10452006 31.16102839
   1.61556627  0.18394470 38.53333435
   1.57838281  0.24834827 45.89456842
   1.53863190  0.31719878 53.30986127
   2.50577156 -1.35793115 33.65576315
   0.76835676  1.65134978 36.06124980
   2.46443231 -1.28632957 41.00623362
   0.72995564  1.71786239 43.41711895
   2.42706413 -1.22160607 48.37172647
   0.69197224  1.78365150 50.78247082
   0.13376736  2.75048705 15.39783729
   2.64140479 -1.59285408 22.16237766
   2.54619949 -1.42795409 28.82022134
   1.81346824 -0.15883064 19.91986487
   1.70958232  0.02110462 26.60380675
   0.97812351  1.28802411 17.67487135
   0.87990060  1.45815078 24.35115131
 


--------------------------------------------------------------------------------------------------------


 k-point  1 :   0.0000 0.0000 0.0000  plane waves:   14785
 k-point  2 :   0.0435 0.0000-0.0000  plane waves:   14789
 k-point  3 :   0.0870 0.0000-0.0000  plane waves:   14764
 k-point  4 :   0.1304-0.0000 0.0000  plane waves:   14743
 k-point  5 :   0.1739-0.0000 0.0000  plane waves:   14702
 k-point  6 :   0.2174 0.0000 0.0000  plane waves:   14656
 k-point  7 :   0.2609 0.0000 0.0000  plane waves:   14614
 k-point  8 :   0.3043-0.0000 0.0000  plane waves:   14580
 k-point  9 :   0.3478-0.0000 0.0000  plane waves:   14520
 k-point 10 :   0.3913-0.0000 0.0000  plane waves:   14486
 k-point 11 :   0.4348 0.0000 0.0000  plane waves:   14459
 k-point 12 :   0.4783 0.0000 0.0000  plane waves:   14443
 k-point 13 :   0.0435 0.0435 0.0000  plane waves:   14781
 k-point 14 :   0.0870 0.0435 0.0000  plane waves:   14756
 k-point 15 :   0.1304 0.0435 0.0000  plane waves:   14727
 k-point 16 :   0.1739 0.0435-0.0000  plane waves:   14673
 k-point 17 :   0.2174 0.0435 0.0000  plane waves:   14620
 k-point 18 :   0.2609 0.0435 0.0000  plane waves:   14595
 k-point 19 :   0.3043 0.0435 0.0000  plane waves:   14549
 k-point 20 :   0.3478 0.0435 0.0000  plane waves:   14511
 k-point 21 :   0.3913 0.0435 0.0000  plane waves:   14481
 k-point 22 :   0.4348 0.0435-0.0000  plane waves:   14448
 k-point 23 :   0.4783 0.0435 0.0000  plane waves:   14389
 k-point 24 :  -0.4783 0.0435-0.0000  plane waves:   14452
 k-point 25 :  -0.4348 0.0435 0.0000  plane waves:   14486
 k-point 26 :  -0.3913 0.0435 0.0000  plane waves:   14508
 k-point 27 :  -0.3478 0.0435 0.0000  plane waves:   14552
 k-point 28 :  -0.3043 0.0435 0.0000  plane waves:   14590
 k-point 29 :  -0.2609 0.0435-0.0000  plane waves:   14620
 k-point 30 :  -0.2174 0.0435 0.0000  plane waves:   14674
 k-point 31 :  -0.1739 0.0435 0.0000  plane waves:   14724
 k-point 32 :  -0.1304 0.0435-0.0000  plane waves:   14755
 k-point 33 :  -0.0870 0.0435 0.0000  plane waves:   14782
 k-point 34 :  -0.0435 0.0435-0.0000  plane waves:   14788
 k-point 35 :   0.0870 0.0870 0.0000  plane waves:   14729
 k-point 36 :   0.1304 0.0870 0.0000  plane waves:   14687
 k-point 37 :   0.1739 0.0870 0.0000  plane waves:   14632
 k-point 38 :   0.2174 0.0870-0.0000  plane waves:   14588
 k-point 39 :   0.2609 0.0870 0.0000  plane waves:   14581
 k-point 40 :   0.3043 0.0870 0.0000  plane waves:   14557
 k-point 41 :   0.3478 0.0870-0.0000  plane waves:   14519
 k-point 42 :   0.3913 0.0870 0.0000  plane waves:   14467
 k-point 43 :   0.4348 0.0870 0.0000  plane waves:   14426
 k-point 44 :   0.4783 0.0870 0.0000  plane waves:   14425
 k-point 45 :  -0.4783 0.0870 0.0000  plane waves:   14464
 k-point 46 :  -0.4348 0.0870 0.0000  plane waves:   14518
 k-point 47 :  -0.3913 0.0870 0.0000  plane waves:   14557
 k-point 48 :  -0.3478 0.0870 0.0000  plane waves:   14590
 k-point 49 :  -0.3043 0.0870-0.0000  plane waves:   14589
 k-point 50 :  -0.2609 0.0870-0.0000  plane waves:   14635
 k-point 51 :  -0.2174 0.0870 0.0000  plane waves:   14690
 k-point 52 :  -0.1739 0.0870-0.0000  plane waves:   14730
 k-point 53 :  -0.1304 0.0870 0.0000  plane waves:   14755
 k-point 54 :  -0.0870 0.0870-0.0000  plane waves:   14772
 k-point 55 :   0.1304 0.1304-0.0000  plane waves:   14629
 k-point 56 :   0.1739 0.1304 0.0000  plane waves:   14605
 k-point 57 :   0.2174 0.1304-0.0000  plane waves:   14594
 k-point 58 :   0.2609 0.1304 0.0000  plane waves:   14557
 k-point 59 :   0.3043 0.1304 0.0000  plane waves:   14541
 k-point 60 :   0.3478 0.1304 0.0000  plane waves:   14511
 k-point 61 :   0.3913 0.1304 0.0000  plane waves:   14451
 k-point 62 :   0.4348 0.1304-0.0000  plane waves:   14452
 k-point 63 :   0.4783 0.1304 0.0000  plane waves:   14457
 k-point 64 :  -0.4783 0.1304-0.0000  plane waves:   14513
 k-point 65 :  -0.4348 0.1304 0.0000  plane waves:   14538
 k-point 66 :  -0.3913 0.1304 0.0000  plane waves:   14564
 k-point 67 :  -0.3478 0.1304 0.0000  plane waves:   14593
 k-point 68 :  -0.3043 0.1304-0.0000  plane waves:   14605
 k-point 69 :  -0.2609 0.1304 0.0000  plane waves:   14621
 k-point 70 :  -0.2174 0.1304 0.0000  plane waves:   14687
 k-point 71 :  -0.1739 0.1304-0.0000  plane waves:   14719
 k-point 72 :  -0.1304 0.1304 0.0000  plane waves:   14740
 k-point 73 :   0.1739 0.1739 0.0000  plane waves:   14585
 k-point 74 :   0.2174 0.1739 0.0000  plane waves:   14574
 k-point 75 :   0.2609 0.1739 0.0000  plane waves:   14555
 k-point 76 :   0.3043 0.1739 0.0000  plane waves:   14531
 k-point 77 :   0.3478 0.1739-0.0000  plane waves:   14484
 k-point 78 :   0.3913 0.1739 0.0000  plane waves:   14465
 k-point 79 :   0.4348 0.1739-0.0000  plane waves:   14465
 k-point 80 :   0.4783 0.1739 0.0000  plane waves:   14488
 k-point 81 :  -0.4783 0.1739 0.0000  plane waves:   14541
 k-point 82 :  -0.4348 0.1739 0.0000  plane waves:   14553
 k-point 83 :  -0.3913 0.1739-0.0000  plane waves:   14569
 k-point 84 :  -0.3478 0.1739 0.0000  plane waves:   14582
 k-point 85 :  -0.3043 0.1739 0.0000  plane waves:   14607
 k-point 86 :  -0.2609 0.1739-0.0000  plane waves:   14641
 k-point 87 :  -0.2174 0.1739 0.0000  plane waves:   14673
 k-point 88 :  -0.1739 0.1739-0.0000  plane waves:   14704
 k-point 89 :   0.2174 0.2174-0.0000  plane waves:   14551
 k-point 90 :   0.2609 0.2174-0.0000  plane waves:   14552
 k-point 91 :   0.3043 0.2174 0.0000  plane waves:   14502
 k-point 92 :   0.3478 0.2174 0.0000  plane waves:   14500
 k-point 93 :   0.3913 0.2174 0.0000  plane waves:   14516
 k-point 94 :   0.4348 0.2174 0.0000  plane waves:   14502
 k-point 95 :   0.4783 0.2174 0.0000  plane waves:   14496
 k-point 96 :  -0.4783 0.2174 0.0000  plane waves:   14560
 k-point 97 :  -0.4348 0.2174 0.0000  plane waves:   14564
 k-point 98 :  -0.3913 0.2174-0.0000  plane waves:   14580
 k-point 99 :  -0.3478 0.2174-0.0000  plane waves:   14592
 k-point ** :  -0.3043 0.2174 0.0000  plane waves:   14582
 k-point ** :  -0.2609 0.2174 0.0000  plane waves:   14621
 k-point ** :  -0.2174 0.2174 0.0000  plane waves:   14663
 k-point ** :   0.2609 0.2609 0.0000  plane waves:   14514
 k-point ** :   0.3043 0.2609 0.0000  plane waves:   14503
 k-point ** :   0.3478 0.2609 0.0000  plane waves:   14541
 k-point ** :   0.3913 0.2609 0.0000  plane waves:   14553
 k-point ** :   0.4348 0.2609 0.0000  plane waves:   14506
 k-point ** :   0.4783 0.2609-0.0000  plane waves:   14507
 k-point ** :  -0.4783 0.2609 0.0000  plane waves:   14554
 k-point ** :  -0.4348 0.2609 0.0000  plane waves:   14558
 k-point ** :  -0.3913 0.2609-0.0000  plane waves:   14558
 k-point ** :  -0.3478 0.2609-0.0000  plane waves:   14581
 k-point ** :  -0.3043 0.2609-0.0000  plane waves:   14593
 k-point ** :  -0.2609 0.2609 0.0000  plane waves:   14616
 k-point ** :   0.3043 0.3043-0.0000  plane waves:   14558
 k-point ** :   0.3478 0.3043-0.0000  plane waves:   14570
 k-point ** :   0.3913 0.3043-0.0000  plane waves:   14558
 k-point ** :   0.4348 0.3043-0.0000  plane waves:   14505
 k-point ** :   0.4783 0.3043-0.0000  plane waves:   14506
 k-point ** :  -0.4783 0.3043 0.0000  plane waves:   14541
 k-point ** :  -0.4348 0.3043 0.0000  plane waves:   14533
 k-point ** :  -0.3913 0.3043-0.0000  plane waves:   14559
 k-point ** :  -0.3478 0.3043 0.0000  plane waves:   14551
 k-point ** :  -0.3043 0.3043-0.0000  plane waves:   14575
 k-point ** :   0.3478 0.3478 0.0000  plane waves:   14566
 k-point ** :   0.3913 0.3478 0.0000  plane waves:   14551
 k-point ** :   0.4348 0.3478 0.0000  plane waves:   14504
 k-point ** :   0.4783 0.3478 0.0000  plane waves:   14488
 k-point ** :  -0.4783 0.3478 0.0000  plane waves:   14517
 k-point ** :  -0.4348 0.3478 0.0000  plane waves:   14508
 k-point ** :  -0.3913 0.3478 0.0000  plane waves:   14520
 k-point ** :  -0.3478 0.3478-0.0000  plane waves:   14518
 k-point ** :   0.3913 0.3913-0.0000  plane waves:   14524
 k-point ** :   0.4348 0.3913-0.0000  plane waves:   14470
 k-point ** :   0.4783 0.3913-0.0000  plane waves:   14442
 k-point ** :  -0.4783 0.3913 0.0000  plane waves:   14470
 k-point ** :  -0.4348 0.3913-0.0000  plane waves:   14486
 k-point ** :  -0.3913 0.3913-0.0000  plane waves:   14487
 k-point ** :   0.4348 0.4348-0.0000  plane waves:   14448
 k-point ** :   0.4783 0.4348 0.0000  plane waves:   14430
 k-point ** :  -0.4783 0.4348 0.0000  plane waves:   14451
 k-point ** :  -0.4348 0.4348 0.0000  plane waves:   14461
 k-point ** :   0.4783 0.4783-0.0000  plane waves:   14392
 k-point ** :  -0.4783 0.4783-0.0000  plane waves:   14443

 maximum and minimum number of plane-waves per node :      3719     3576

 maximum number of plane-waves:     14789
 maximum index in each direction: 
   IXMAX=    6   IYMAX=    5   IZMAX=  130
   IXMIN=   -6   IYMIN=   -6   IZMIN= -130


 parallel 3D FFT for wavefunctions:
    minimum data exchange during FFTs selected (reduces bandwidth)
 parallel 3D FFT for charge:
    minimum data exchange during FFTs selected (reduces bandwidth)


 total amount of memory used by VASP MPI-rank0   343837. kBytes
=======================================================================

   base      :      30000. kBytes
   nonl-proj :     166865. kBytes
   fftplans  :      21368. kBytes
   grid      :      13079. kBytes
   one-center:         56. kBytes
   wavefun   :     112469. kBytes
 
     INWAV:  cpu time    0.0000: real time    0.0000
 Broyden mixing: mesh for mixing (old mesh)
   NGX = 11   NGY = 11   NGZ =261
  (NGX  = 48   NGY  = 48   NGZ  =***)
  gives a total of  31581 points

 initial charge density was supplied:
 charge density of overlapping atoms calculated
 number of electron      95.0000000 magnetization 
 keeping initial charge density in first step


--------------------------------------------------------------------------------------------------------


 Maximum index for augmentation-charges        10386 (set IRDMAX)


--------------------------------------------------------------------------------------------------------


 First call to EWALD:  gamma=   0.218
 Maximum number of real-space cells 8x 8x 1
 Maximum number of reciprocal cells 1x 1x20

    FEWALD:  cpu time    0.0016: real time    0.0016


--------------------------------------- Iteration      1(   1)  ---------------------------------------


    POTLOK:  cpu time    0.0666: real time    0.0667
    SETDIJ:  cpu time    0.1294: real time    0.1298
     EDDAV:  cpu time   35.9776: real time   36.2325
 BZINTS: Fermi energy: 11.594875; 95.000000 electrons
         Band energy: -19.541439;  BLOECHL correction: -0.059878
       DOS:  cpu time    0.0548: real time    0.0566
    --------------------------------------------
      LOOP:  cpu time   36.2284: real time   36.4856

 eigenvalue-minimisations  : 19310
 total energy-change (2. order) : 0.6509716E+03  (-0.3868657E+04)
 number of electron      95.0000000 magnetization 
 augmentation part       95.0000000 magnetization 

 Free energy of the ion-electron system (eV)
  ---------------------------------------------------
  alpha Z        PSCENC =        74.75121956
  Ewald energy   TEWEN  =    155583.30122797
  -Hartree energ DENC   =   -159792.04159648
  -exchange      EXHF   =         0.00000000
  -V(xc)+E(xc)   XCENC  =      -417.97859271
  PAW double counting   =      4235.41334458    -3509.29226066
  entropy T*S    EENTRO =         0.00000000
  eigenvalues    EBANDS =       -19.54143932
  atomic energy  EATOM  =      4496.35971583
  Solvation  Ediel_sol  =         0.00000000
  ---------------------------------------------------
  free energy    TOTEN  =       650.97161875 eV

  energy without entropy =      650.97161875  energy(sigma->0) =      650.97161875


--------------------------------------------------------------------------------------------------------




--------------------------------------- Iteration      1(   2)  ---------------------------------------


     EDDAV:  cpu time   54.4722: real time   55.8655
 BZINTS: Fermi energy:  1.722336; 95.000000 electrons
         Band energy:-713.113383;  BLOECHL correction: -0.069485
       DOS:  cpu time    0.0598: real time    0.0599
    --------------------------------------------
      LOOP:  cpu time   54.5320: real time   55.9254

 eigenvalue-minimisations  : 24480
 total energy-change (2. order) :-0.6935719E+03  (-0.6588655E+03)
 number of electron      95.0000000 magnetization 
 augmentation part       95.0000000 magnetization 

 Free energy of the ion-electron system (eV)
  ---------------------------------------------------
  alpha Z        PSCENC =        74.75121956
  Ewald energy   TEWEN  =    155583.30122797
  -Hartree energ DENC   =   -159792.04159648
  -exchange      EXHF   =         0.00000000
  -V(xc)+E(xc)   XCENC  =      -417.97859271
  PAW double counting   =      4235.41334458    -3509.29226066
  entropy T*S    EENTRO =         0.00000000
  eigenvalues    EBANDS =      -713.11338319
  atomic energy  EATOM  =      4496.35971583
  Solvation  Ediel_sol  =         0.00000000
  ---------------------------------------------------
  free energy    TOTEN  =       -42.60032512 eV

  energy without entropy =      -42.60032512  energy(sigma->0) =      -42.60032512


--------------------------------------------------------------------------------------------------------




--------------------------------------- Iteration      1(   3)  ---------------------------------------


     EDDAV:  cpu time   49.6696: real time   50.8460
 BZINTS: Fermi energy:  1.156226; 95.000000 electrons
         Band energy:-816.083929;  BLOECHL correction: -0.058776
       DOS:  cpu time    0.0596: real time    0.0609
    --------------------------------------------
      LOOP:  cpu time   49.7293: real time   50.9068

 eigenvalue-minimisations  : 22505
 total energy-change (2. order) :-0.1029705E+03  (-0.1022301E+03)
 number of electron      95.0000000 magnetization 
 augmentation part       95.0000000 magnetization 

 Free energy of the ion-electron system (eV)
  ---------------------------------------------------
  alpha Z        PSCENC =        74.75121956
  Ewald energy   TEWEN  =    155583.30122797
  -Hartree energ DENC   =   -159792.04159648
  -exchange      EXHF   =         0.00000000
  -V(xc)+E(xc)   XCENC  =      -417.97859271
  PAW double counting   =      4235.41334458    -3509.29226066
  entropy T*S    EENTRO =         0.00000000
  eigenvalues    EBANDS =      -816.08392941
  atomic energy  EATOM  =      4496.35971583
  Solvation  Ediel_sol  =         0.00000000
  ---------------------------------------------------
  free energy    TOTEN  =      -145.57087134 eV

  energy without entropy =     -145.57087134  energy(sigma->0) =     -145.57087134


--------------------------------------------------------------------------------------------------------




--------------------------------------- Iteration      1(   4)  ---------------------------------------


     EDDAV:  cpu time   51.9492: real time   53.2164
 BZINTS: Fermi energy:  1.129068; 95.000000 electrons
         Band energy:-819.086231;  BLOECHL correction: -0.057652
       DOS:  cpu time    0.0521: real time    0.0522
    --------------------------------------------
      LOOP:  cpu time   52.0013: real time   53.2686

 eigenvalue-minimisations  : 23395
 total energy-change (2. order) :-0.3002302E+01  (-0.2995841E+01)
 number of electron      95.0000000 magnetization 
 augmentation part       95.0000000 magnetization 

 Free energy of the ion-electron system (eV)
  ---------------------------------------------------
  alpha Z        PSCENC =        74.75121956
  Ewald energy   TEWEN  =    155583.30122797
  -Hartree energ DENC   =   -159792.04159648
  -exchange      EXHF   =         0.00000000
  -V(xc)+E(xc)   XCENC  =      -417.97859271
  PAW double counting   =      4235.41334458    -3509.29226066
  entropy T*S    EENTRO =         0.00000000
  eigenvalues    EBANDS =      -819.08623099
  atomic energy  EATOM  =      4496.35971583
  Solvation  Ediel_sol  =         0.00000000
  ---------------------------------------------------
  free energy    TOTEN  =      -148.57317292 eV

  energy without entropy =     -148.57317292  energy(sigma->0) =     -148.57317292


--------------------------------------------------------------------------------------------------------




--------------------------------------- Iteration      1(   5)  ---------------------------------------


     EDDAV:  cpu time   56.7216: real time   58.4613
 BZINTS: Fermi energy:  1.128100; 95.000000 electrons
         Band energy:-819.168546;  BLOECHL correction: -0.057602
       DOS:  cpu time    0.0574: real time    0.0606
    CHARGE:  cpu time    1.9026: real time    2.0896
    MIXING:  cpu time    0.0125: real time    0.0126
    --------------------------------------------
      LOOP:  cpu time   58.6942: real time   60.6242

 eigenvalue-minimisations  : 26395
 total energy-change (2. order) :-0.8231516E-01  (-0.8226550E-01)
 number of electron      95.0000010 magnetization 
 augmentation part        6.9600376 magnetization 

 Broyden mixing:
  rms(total) = 0.22076E+01    rms(broyden)= 0.22071E+01
  rms(prec ) = 0.22501E+01
  weight for this iteration     100.00

 Free energy of the ion-electron system (eV)
  ---------------------------------------------------
  alpha Z        PSCENC =        74.75121956
  Ewald energy   TEWEN  =    155583.30122797
  -Hartree energ DENC   =   -159792.04159648
  -exchange      EXHF   =         0.00000000
  -V(xc)+E(xc)   XCENC  =      -417.97859271
  PAW double counting   =      4235.41334458    -3509.29226066
  entropy T*S    EENTRO =         0.00000000
  eigenvalues    EBANDS =      -819.16854615
  atomic energy  EATOM  =      4496.35971583
  Solvation  Ediel_sol  =         0.00000000
  ---------------------------------------------------
  free energy    TOTEN  =      -148.65548808 eV

  energy without entropy =     -148.65548808  energy(sigma->0) =     -148.65548808


--------------------------------------------------------------------------------------------------------




--------------------------------------- Iteration      1(   6)  ---------------------------------------


    POTLOK:  cpu time    0.0849: real time    0.0863
    SETDIJ:  cpu time    0.2238: real time    0.2262
     EDDAV:  cpu time   50.7494: real time   52.7752
 BZINTS: Fermi energy:  1.775522; 95.000000 electrons
         Band energy:-631.705730;  BLOECHL correction: -0.055019
       DOS:  cpu time    0.0570: real time    0.0571
    CHARGE:  cpu time    1.9648: real time    1.9667
    MIXING:  cpu time    0.0359: real time    0.0360
    --------------------------------------------
      LOOP:  cpu time   53.1158: real time   55.1476

 eigenvalue-minimisations  : 21555
 total energy-change (2. order) : 0.1512426E+02  (-0.8712852E+01)
 number of electron      95.0000011 magnetization 
 augmentation part        5.6948818 magnetization 

 Broyden mixing:
  rms(total) = 0.71996E+00    rms(broyden)= 0.71905E+00
  rms(prec ) = 0.75733E+00
  weight for this iteration     100.00

 eigenvalues of (default mixing * dielectric matrix)
  average eigenvalue GAMMA=   0.8647
  0.8647

 Free energy of the ion-electron system (eV)
  ---------------------------------------------------
  alpha Z        PSCENC =        74.75121956
  Ewald energy   TEWEN  =    155583.30122797
  -Hartree energ DENC   =   -159973.27871325
  -exchange      EXHF   =         0.00000000
  -V(xc)+E(xc)   XCENC  =      -405.88001030
  PAW double counting   =      5076.28481311    -4353.36375285
  entropy T*S    EENTRO =         0.00000000
  eigenvalues    EBANDS =      -631.70572979
  atomic energy  EATOM  =      4496.35971583
  Solvation  Ediel_sol  =         0.00000000
  ---------------------------------------------------
  free energy    TOTEN  =      -133.53122972 eV

  energy without entropy =     -133.53122972  energy(sigma->0) =     -133.53122972


--------------------------------------------------------------------------------------------------------




--------------------------------------- Iteration      1(   7)  ---------------------------------------


    POTLOK:  cpu time    0.0777: real time    0.0792
    SETDIJ:  cpu time    0.1858: real time    0.1872
     EDDAV:  cpu time   52.8883: real time   53.5761
 BZINTS: Fermi energy:  1.459153; 95.000000 electrons
         Band energy:-627.591969;  BLOECHL correction: -0.048272
       DOS:  cpu time    0.0546: real time    0.0547
    CHARGE:  cpu time    1.9949: real time    1.9972
    MIXING:  cpu time    0.0161: real time    0.0161
    --------------------------------------------
      LOOP:  cpu time   55.2172: real time   55.9103

 eigenvalue-minimisations  : 21920
 total energy-change (2. order) : 0.1524105E+00  (-0.7004790E+00)
 number of electron      95.0000012 magnetization 
 augmentation part        5.6830399 magnetization 

 Broyden mixing:
  rms(total) = 0.47881E+00    rms(broyden)= 0.47878E+00
  rms(prec ) = 0.50623E+00
  weight for this iteration     100.00

 eigenvalues of (default mixing * dielectric matrix)
  average eigenvalue GAMMA=   1.4410
  1.0448  1.8373

 Free energy of the ion-electron system (eV)
  ---------------------------------------------------
  alpha Z        PSCENC =        74.75121956
  Ewald energy   TEWEN  =    155583.30122797
  -Hartree energ DENC   =   -159978.21805954
  -exchange      EXHF   =         0.00000000
  -V(xc)+E(xc)   XCENC  =      -405.25009111
  PAW double counting   =      5390.87903361    -4667.60989615
  entropy T*S    EENTRO =         0.00000000
  eigenvalues    EBANDS =      -627.59196940
  atomic energy  EATOM  =      4496.35971583
  Solvation  Ediel_sol  =         0.00000000
  ---------------------------------------------------
  free energy    TOTEN  =      -133.37881924 eV

  energy without entropy =     -133.37881924  energy(sigma->0) =     -133.37881924


--------------------------------------------------------------------------------------------------------




--------------------------------------- Iteration      1(   8)  ---------------------------------------


    POTLOK:  cpu time    0.0879: real time    0.0892
    SETDIJ:  cpu time    0.2121: real time    0.2131
     EDDAV:  cpu time   53.7791: real time   53.9409
 BZINTS: Fermi energy:  1.773832; 95.000000 electrons
[...]
     46       0.1028      2.00000
     47       0.7738      2.00000
     48       1.5239      2.00000
     49       1.9812      1.99065
     50       2.8839      0.00000
     51       3.0831      0.00000
     52       3.2897      0.00000
     53       4.5852      0.00000
     54       4.7130      0.00000
     55       5.0021      0.00000
     56       5.7024      0.00000
     57       5.9301      0.00000
     58       6.3680      0.00000
     59       6.5292      0.00000
     60       6.6934      0.00000
     61       6.8953      0.00000
     62       7.0114      0.00000
     63       7.3631      0.00000
     64       7.6182      0.00000
     65       7.7284      0.00000

 k-point   142 :      -0.4348    0.4348    0.0000
  band No.  band energies     occupation 
      1     -17.6448      2.00000
      2     -17.5628      2.00000
      3     -17.5041      2.00000
      4     -17.4583      2.00000
      5     -17.4105      2.00000
      6     -17.3572      2.00000
      7     -17.3029      2.00000
      8     -17.2444      2.00000
      9     -17.1770      2.00000
     10      -5.9651      2.00000
     11      -5.8200      2.00000
     12      -5.6475      2.00000
     13      -5.5165      2.00000
     14      -5.4422      2.00000
     15      -5.3776      2.00000
     16      -5.2923      2.00000
     17      -5.2023      2.00000
     18      -5.1443      2.00000
     19      -4.4679      2.00000
     20      -4.1181      2.00000
     21      -3.9338      2.00000
     22      -3.7245      2.00000
     23      -3.4993      2.00000
     24      -3.3914      2.00000
     25      -3.1552      2.00000
     26      -3.0405      2.00000
     27      -2.9056      2.00000
     28      -2.8537      2.00000
     29      -2.8388      2.00000
     30      -2.7556      2.00000
     31      -2.6816      2.00000
     32      -2.6146      2.00000
     33      -2.5976      2.00000
     34      -2.5110      2.00000
     35      -2.5005      2.00000
     36      -2.3971      2.00000
     37      -2.2989      2.00000
     38      -2.2578      2.00000
     39      -2.2095      2.00000
     40      -2.1177      2.00000
     41      -1.6891      2.00000
     42      -1.5820      2.00000
     43      -1.3170      2.00000
     44      -0.7745      2.00000
     45      -0.3367      2.00000
     46       0.1622      2.00000
     47       0.9904      2.00000
     48       1.3866      2.00000
     49       2.2766      0.15970
     50       2.6175      0.00000
     51       2.7928      0.00000
     52       3.6700      0.00000
     53       4.4098      0.00000
     54       5.0175      0.00000
     55       5.2762      0.00000
     56       5.8574      0.00000
     57       6.3861      0.00000
     58       6.5745      0.00000
     59       6.7483      0.00000
     60       6.8536      0.00000
     61       7.0770      0.00000
     62       7.2333      0.00000
     63       7.4078      0.00000
     64       7.6508      0.00000
     65       7.7425      0.00000

 k-point   143 :       0.4783    0.4783   -0.0000
  band No.  band energies     occupation 
      1     -17.5656      2.00000
      2     -17.4909      2.00000
      3     -17.4390      2.00000
      4     -17.3988      2.00000
      5     -17.3644      2.00000
      6     -17.3296      2.00000
      7     -17.2885      2.00000
      8     -17.2397      2.00000
      9     -17.1808      2.00000
     10      -6.0630      2.00000
     11      -5.9174      2.00000
     12      -5.7437      2.00000
     13      -5.5699      2.00000
     14      -5.5281      2.00000
     15      -5.4343      2.00000
     16      -5.3716      2.00000
     17      -5.2818      2.00000
     18      -5.2288      2.00000
     19      -3.6285      2.00000
     20      -3.4765      2.00000
     21      -3.3929      2.00000
     22      -3.2745      2.00000
     23      -3.1708      2.00000
     24      -3.1331      2.00000
     25      -3.1203      2.00000
     26      -2.9700      2.00000
     27      -2.9532      2.00000
     28      -2.9234      2.00000
     29      -2.8301      2.00000
     30      -2.7837      2.00000
     31      -2.7541      2.00000
     32      -2.7408      2.00000
     33      -2.6605      2.00000
     34      -2.6163      2.00000
     35      -2.5397      2.00000
     36      -2.4527      2.00000
     37      -2.3524      2.00000
     38      -2.3241      2.00000
     39      -2.2365      2.00000
     40      -2.1934      2.00000
     41      -2.1841      2.00000
     42      -2.1034      2.00000
     43      -1.4052      2.00000
     44      -1.2511      2.00000
     45      -0.3937      2.00000
     46      -0.0943      2.00000
     47       0.8323      2.00000
     48       1.2214      2.00000
     49       2.1477      1.79477
     50       2.6220      0.00000
     51       3.3864      0.00000
     52       3.5135      0.00000
     53       3.9185      0.00000
     54       4.6593      0.00000
     55       5.1184      0.00000
     56       5.5980      0.00000
     57       5.8335      0.00000
     58       6.3424      0.00000
     59       6.4961      0.00000
     60       6.7177      0.00000
     61       6.9303      0.00000
     62       6.9555      0.00000
     63       7.3676      0.00000
     64       7.5669      0.00000
     65       7.7069      0.00000

 k-point   144 :      -0.4783    0.4783   -0.0000
  band No.  band energies     occupation 
      1     -17.5793      2.00000
      2     -17.5034      2.00000
      3     -17.4502      2.00000
      4     -17.4096      2.00000
      5     -17.3737      2.00000
      6     -17.3359      2.00000
      7     -17.2926      2.00000
      8     -17.2421      2.00000
      9     -17.1818      2.00000
     10      -6.0694      2.00000
     11      -5.9237      2.00000
     12      -5.7497      2.00000
     13      -5.5791      2.00000
     14      -5.5348      2.00000
     15      -5.4427      2.00000
     16      -5.3774      2.00000
     17      -5.2868      2.00000
     18      -5.2333      2.00000
     19      -3.6966      2.00000
     20      -3.6071      2.00000
     21      -3.5132      2.00000
     22      -3.3634      2.00000
     23      -3.2605      2.00000
     24      -3.2135      2.00000
     25      -3.1523      2.00000
     26      -2.9631      2.00000
     27      -2.9001      2.00000
     28      -2.8766      2.00000
     29      -2.7785      2.00000
     30      -2.7044      2.00000
     31      -2.6881      2.00000
     32      -2.6317      2.00000
     33      -2.6204      2.00000
     34      -2.5515      2.00000
     35      -2.5232      2.00000
     36      -2.4197      2.00000
     37      -2.3214      2.00000
     38      -2.3174      2.00000
     39      -2.2829      2.00000
     40      -2.2320      2.00000
     41      -2.1402      2.00000
     42      -1.8302      2.00000
     43      -1.6764      2.00000
     44      -0.9982      2.00000
     45      -0.6222      2.00000
     46       0.1131      2.00000
     47       0.6164      2.00000
     48       1.4439      2.00000
     49       1.9146      2.08549
     50       2.8385      0.00000
     51       3.2399      0.00000
     52       3.2667      0.00000
     53       4.1699      0.00000
     54       4.7297      0.00000
     55       4.9835      0.00000
     56       5.8914      0.00000
     57       6.3429      0.00000
     58       6.4812      0.00000
     59       6.6757      0.00000
     60       6.8447      0.00000
     61       7.0045      0.00000
     62       7.1852      0.00000
     63       7.4094      0.00000
     64       7.5667      0.00000
     65       7.6618      0.00000


--------------------------------------------------------------------------------------------------------


 soft charge-density along one line, spin component           1
         0         1         2         3         4         5         6         7         8         9
 total charge-density along one line
 
 pseudopotential strength for first ion, spin component:           1
 12.852 -15.690  -0.000   0.000   0.000   0.000  -0.000  -0.000
-15.690  19.179   0.000  -0.000  -0.000  -0.000   0.000   0.000
 -0.000   0.000  -9.193   0.000   0.000  11.183  -0.000  -0.000
  0.000  -0.000   0.000  -9.194  -0.000  -0.000  11.185   0.000
  0.000  -0.000   0.000  -0.000  -9.193  -0.000   0.000  11.183
  0.000  -0.000  11.183  -0.000  -0.000 -13.483   0.000   0.000
 -0.000   0.000  -0.000  11.185   0.000   0.000 -13.485  -0.000
 -0.000   0.000  -0.000   0.000  11.183   0.000  -0.000 -13.483
 total augmentation occupancy for first ion, spin component:           1
  2.616   0.371   0.000  -0.001  -0.000   0.000  -0.000  -0.000
  0.371   0.070  -0.000  -0.001   0.000   0.000  -0.000  -0.000
  0.000  -0.000   2.173  -0.000   0.000   0.264  -0.000  -0.000
 -0.001  -0.001  -0.000   2.172   0.000  -0.000   0.265   0.000
 -0.000   0.000   0.000   0.000   2.173  -0.000   0.000   0.264
  0.000   0.000   0.264  -0.000  -0.000   0.035  -0.000  -0.000
 -0.000  -0.000  -0.000   0.265   0.000  -0.000   0.035   0.000
 -0.000  -0.000  -0.000   0.000   0.264  -0.000   0.000   0.035


------------------------ aborting loop because EDIFF is reached ----------------------------------------


    CHARGE:  cpu time    2.0795: real time    2.0902
    FORLOC:  cpu time    0.0360: real time    0.0361
    FORNL :  cpu time   13.5709: real time   13.6233
    STRESS:  cpu time   28.6282: real time   28.7544
    FORCOR:  cpu time    0.1035: real time    0.1040
    FORHAR:  cpu time    0.0348: real time    0.0362
    MIXING:  cpu time    0.0057: real time    0.0058
    OFIELD:  cpu time    0.0010: real time    0.0001

  FORCE on cell =-STRESS in cart. coord.  units (eV):
  Direction    XX          YY          ZZ          XY          YZ          ZX
  --------------------------------------------------------------------------------------
  Alpha Z    74.75122    74.75122    74.75122
  Ewald  158057.68202158033.49675************    20.94744 -3490.23636  2015.08602
  Hartree159195.41353159169.68558************    22.28030 -3478.47834  2008.29957
  E(xc)    -390.71881  -390.73674  -391.32188     0.01541     0.01010    -0.00582
  Local  ************************317719.28643   -43.24938  6968.72979 -4023.39491
  n-local   -26.39469   -33.20832   -24.39106    -2.18653     1.65634     3.27629
  augment    54.09061    54.07335    53.61055     0.01462     0.01147    -0.00662
  Kinetic  1396.07900  1371.40688  1382.54811    -6.90940     0.52868     0.67592
  Fock        0.00000     0.00000     0.00000     0.00000     0.00000     0.00000
  -------------------------------------------------------------------------------------
  Total       0.91305     0.91018     1.53617     0.00248    -0.03572     0.02062
  in kB       2.70443     2.69593     4.55010     0.00735    -0.10579     0.06108
  external pressure =        3.32 kB  Pullay stress =        0.00 kB


 VOLUME and BASIS-vectors are now :
 -----------------------------------------------------------------------------
  energy-cutoff  :      520.00
  volume of cell :      540.92
      direct lattice vectors                 reciprocal lattice vectors
     2.582945031 -1.491599475  0.032681260     0.387192928  0.000010777 -0.002508275
    -0.000294730  2.982688461 -0.032681217     0.193605797  0.335314616  0.002508270
     0.454958667 -0.788008040 70.226874913    -0.000090089  0.000156039  0.014241897

  length of vectors
     2.982874803  2.982867513 70.232769446     0.387201052  0.387201998  0.014243037


 FORCES acting on ions
    electron-ion (+dipol)            ewald-force                    non-local-force                 convergence-correction
 -----------------------------------------------------------------------------------------------
   -.853E+01 0.148E+02 0.135E+04   0.853E+01 -.148E+02 -.135E+04   0.162E-02 -.281E-02 -.119E+00   -.293E-03 0.507E-03 0.466E-01
   0.402E+01 -.696E+01 -.634E+03   -.402E+01 0.696E+01 0.634E+03   0.722E-03 -.125E-02 -.964E-01   0.189E-03 -.327E-03 -.296E-01
   0.165E+02 -.286E+02 -.261E+04   -.165E+02 0.286E+02 0.261E+04   0.775E-03 -.134E-02 -.203E+00   -.106E-03 0.183E-03 0.191E-01
   -.127E+02 0.219E+02 0.200E+04   0.127E+02 -.219E+02 -.200E+04   -.181E-02 0.314E-02 0.429E+00   -.650E-03 0.113E-02 0.101E+00
   -.435E+01 0.753E+01 0.685E+03   0.435E+01 -.753E+01 -.685E+03   0.229E-02 -.396E-02 -.127E+00   -.413E-04 0.715E-04 0.557E-02
   -.164E+00 0.284E+00 0.254E+02   0.162E+00 -.281E+00 -.253E+02   0.178E-02 -.309E-02 -.105E+00   0.414E-04 -.718E-04 -.855E-02
   0.818E+01 -.142E+02 -.129E+04   -.819E+01 0.142E+02 0.129E+04   0.113E-02 -.196E-02 -.114E+00   0.225E-03 -.390E-03 -.340E-01
   0.124E+02 -.214E+02 -.195E+04   -.124E+02 0.214E+02 0.195E+04   0.107E-02 -.185E-02 -.130E+00   -.287E-04 0.498E-04 0.339E-02
   0.207E+02 -.358E+02 -.326E+04   -.207E+02 0.358E+02 0.327E+04   0.759E-02 -.131E-01 -.174E+01   -.345E-03 0.597E-03 0.422E-01
   -.480E+01 0.832E+01 0.760E+03   0.480E+01 -.832E+01 -.761E+03   0.324E-02 -.562E-02 0.241E+00   -.186E-03 0.322E-03 0.293E-01
   -.764E+00 0.132E+01 0.118E+03   0.761E+00 -.132E+01 -.118E+03   0.502E-02 -.870E-02 -.798E-01   -.648E-05 0.112E-04 0.104E-02
   0.342E+01 -.592E+01 -.541E+03   -.342E+01 0.592E+01 0.541E+03   0.228E-02 -.395E-02 -.803E-01   0.273E-04 -.473E-04 -.431E-02
   0.748E+01 -.130E+02 -.118E+04   -.748E+01 0.130E+02 0.118E+04   -.708E-02 0.123E-01 0.689E+00   -.616E-04 0.107E-03 0.968E-02
   -.354E+01 0.613E+01 0.559E+03   0.354E+01 -.613E+01 -.559E+03   0.254E-02 -.439E-02 -.996E-01   -.152E-03 0.264E-03 0.241E-01
   -.215E+01 0.372E+01 0.338E+03   0.215E+01 -.372E+01 -.338E+03   0.257E-02 -.446E-02 -.770E-01   -.628E-04 0.109E-03 0.994E-02
   0.642E+00 -.111E+01 -.102E+03   -.642E+00 0.111E+01 0.102E+03   0.983E-03 -.170E-02 -.740E-01   0.214E-04 -.371E-04 -.337E-02
   0.203E+01 -.352E+01 -.321E+03   -.203E+01 0.352E+01 0.322E+03   0.728E-03 -.126E-02 -.778E-01   0.443E-04 -.768E-04 -.700E-02
   0.481E+01 -.834E+01 -.761E+03   -.481E+01 0.834E+01 0.761E+03   0.605E-03 -.105E-02 -.798E-01   -.157E-04 0.272E-04 0.250E-02
   0.621E+01 -.108E+02 -.981E+03   -.621E+01 0.108E+02 0.981E+03   -.203E-02 0.352E-02 -.145E-01   -.559E-04 0.969E-04 0.881E-02
   -.701E+01 0.121E+02 0.111E+04   0.702E+01 -.122E+02 -.111E+04   -.103E-01 0.179E-01 -.142E+01   0.145E-03 -.252E-03 -.228E-01
   -.705E+01 0.122E+02 0.112E+04   0.705E+01 -.122E+02 -.112E+04   -.458E-02 0.794E-02 -.947E-02   -.115E-03 0.200E-03 0.179E-01
   -.709E+01 0.123E+02 0.112E+04   0.708E+01 -.123E+02 -.112E+04   0.102E-01 -.176E-01 -.826E+00   -.239E-03 0.415E-03 0.379E-01
   -.704E+01 0.122E+02 0.112E+04   0.704E+01 -.122E+02 -.112E+04   -.136E-01 0.235E-01 -.950E-02   -.545E-04 0.944E-04 0.799E-02
   -.710E+01 0.123E+02 0.112E+04   0.709E+01 -.123E+02 -.112E+04   0.168E-01 -.291E-01 -.331E-01   -.193E-03 0.335E-03 0.303E-01
   -.703E+01 0.122E+02 0.112E+04   0.704E+01 -.122E+02 -.111E+04   -.151E-01 0.261E-01 0.412E-02   0.596E-04 -.103E-03 -.917E-02
   -.710E+01 0.123E+02 0.112E+04   0.708E+01 -.123E+02 -.112E+04   0.169E-01 -.293E-01 -.634E-01   -.137E-03 0.238E-03 0.224E-01
 -----------------------------------------------------------------------------------------------
   -.220E-01 0.383E-01 0.391E+01   -.684E-13 -.107E-13 0.000E+00   0.243E-01 -.421E-01 -.421E+01   -.199E-02 0.345E-02 0.301E+00
 
 
 POSITION                                       TOTAL-FORCE (eV/Angst)
 -----------------------------------------------------------------------------------
      1.63687      0.14705     34.85310         0.002076     -0.003595      0.002688
      1.59732      0.21555     42.20552        -0.000972      0.001684      0.017988
      1.55977      0.28058     49.57202        -0.002027      0.003511     -0.001268
      0.79176      1.61081     32.38689         0.001331     -0.002305     -0.022713
      2.48344     -1.31926     37.32448         0.001741     -0.003016      0.002535
      0.74841      1.68590     39.73100         0.000131     -0.000227      0.015163
      2.44590     -1.25423     44.68298        -0.000684      0.001185      0.007890
      0.71117      1.75040     47.09489        -0.000399      0.000690      0.005956
      2.40717     -1.18715     52.04423        -0.002161      0.003742      0.030265
      1.66142      0.10452     31.16103         0.002866     -0.004964     -0.009639
      1.61557      0.18394     38.53333         0.002473     -0.004284     -0.004273
      1.57838      0.24835     45.89457         0.000964     -0.001670     -0.009752
      1.53863      0.31720     53.30986        -0.001716      0.002972     -0.000602
      2.50577     -1.35793     33.65576         0.001204     -0.002086     -0.001789
      0.76836      1.65135     36.06125         0.001226     -0.002124      0.007471
      2.46443     -1.28633     41.00623         0.000282     -0.000488      0.005643
      0.72996      1.71786     43.41712         0.000142     -0.000246     -0.005203
      2.42706     -1.22161     48.37173         0.000070     -0.000121     -0.009851
      0.69197      1.78365     50.78247        -0.001197      0.002073      0.006452
      0.13377      2.75049     15.39784        -0.002257      0.003910     -0.044529
      2.64140     -1.59285     22.16238        -0.000571      0.000989     -0.009723
      2.54620     -1.42795     28.82022         0.000306     -0.000530      0.056774
      1.81347     -0.15883     19.91986        -0.005525      0.009570     -0.040191
      1.70958      0.02110     26.60381         0.003412     -0.005910     -0.049592
      0.97812      1.28802     17.67487        -0.003588      0.006215      0.021561
      0.87990      1.45815     24.35115         0.002875     -0.004979      0.028738
 -----------------------------------------------------------------------------------
    total drift:                                0.000322     -0.000422      0.001187


--------------------------------------------------------------------------------------------------------



  FREE ENERGIE OF THE ION-ELECTRON SYSTEM (eV)
  ---------------------------------------------------
  free  energy   TOTEN  =      -133.12192426 eV

  energy  without entropy=     -133.12192426  energy(sigma->0) =     -133.12192426
 


--------------------------------------------------------------------------------------------------------


    POTLOK:  cpu time    0.2911: real time    0.2955


--------------------------------------------------------------------------------------------------------


 stress matrix after NEB project (eV)
      0.91305      0.00248      0.02062
      0.00248      0.91018     -0.03572
      0.02062     -0.03572      1.53617
  FORCES: max atom, RMS     0.056777    0.022931
  FORCE total and by dimension    0.116926    0.056774
  Stress total and by dimension    2.006324    1.536174
     LOOP+:  cpu time 1709.6392: real time 1724.7721
    4ORBIT:  cpu time    0.0000: real time    0.0000
 BZINTS: Fermi energy:  2.129179; 95.000000 electrons
         Band energy:-549.605350;  BLOECHL correction: -0.051338

 total amount of memory used by VASP MPI-rank0   343837. kBytes
=======================================================================

   base      :      30000. kBytes
   nonl-proj :     166865. kBytes
   fftplans  :      21368. kBytes
   grid      :      13079. kBytes
   one-center:         56. kBytes
   wavefun   :     112469. kBytes
 
  
  
 General timing and accounting informations for this job:
 ========================================================
  
                  Total CPU time used (sec):     1723.412
                            User time (sec):     1713.226
                          System time (sec):       10.186
                         Elapsed time (sec):     1738.549
  
                   Maximum memory used (kb):      458112.
                   Average memory used (kb):           0.
  
                          Minor page faults:       748856
                          Major page faults:            0
                 Voluntary context switches:         1012
