       N       E                     dE             d eps       ncg     rms          rms(c)
DAV:   1     0.478754628645E+03    0.47875E+03   -0.40937E+04  2604   0.131E+03
DAV:   2    -0.889927837457E+02   -0.56775E+03   -0.53774E+03  3346   0.250E+02
DAV:   3    -0.146753307049E+03   -0.57761E+02   -0.57415E+02  3026   0.854E+01
DAV:   4    -0.147566815475E+03   -0.81351E+00   -0.81140E+00  3050   0.110E+01
DAV:   5    -0.147580694368E+03   -0.13879E-01   -0.13872E-01  3110   0.142E+00    0.220E+01
DAV:   6    -0.132747160058E+03    0.14834E+02   -0.84992E+01  2962   0.289E+01    0.752E+00
DAV:   7    -0.132597300003E+03    0.14986E+00   -0.16916E+00  2870   0.513E+00    0.453E+00
DAV:   8    -0.132507889245E+03    0.89411E-01   -0.49051E-01  3036   0.372E+00    0.803E-01
DAV:   9    -0.132481584232E+03    0.26305E-01   -0.97152E-02  2968   0.111E+00    0.430E-01
DAV:  10    -0.132482555938E+03   -0.97171E-03   -0.37377E-02  2900   0.749E-01    0.266E-01
DAV:  11    -0.132482512648E+03    0.43290E-04   -0.23925E-03  3090   0.274E-01    0.162E-01
DAV:  12    -0.132482879903E+03   -0.36726E-03   -0.24546E-03  3474   0.279E-01    0.537E-02
DAV:  13    -0.132482851123E+03    0.28780E-04   -0.56823E-04  3042   0.110E-01    0.353E-02
DAV:  14    -0.132482834083E+03    0.17040E-04   -0.20320E-04  2908   0.591E-02    0.126E-02
DAV:  15    -0.132482823746E+03    0.10337E-04   -0.23862E-05  2256   0.260E-02    0.578E-03
DAV:  16    -0.132482818615E+03    0.51311E-05   -0.29890E-06  1770   0.237E-02
   1 F= -.13248282E+03 E0= -.13247958E+03  d E =-.132483E+03
       N       E                     dE             d eps       ncg     rms          rms(c)
DAV:   1    -0.132484478051E+03   -0.16543E-02   -0.32789E-02  2724   0.798E-01    0.344E-02
DAV:   2    -0.132484545948E+03   -0.67897E-04   -0.12353E-03  3006   0.157E-01    0.289E-02
DAV:   3    -0.132484531815E+03    0.14133E-04   -0.62492E-05  2916   0.382E-02    0.216E-02
DAV:   4    -0.132484514825E+03    0.16990E-04   -0.58630E-05  2832   0.334E-02    0.861E-03
DAV:   5    -0.132484506979E+03    0.78460E-05   -0.95144E-06  1942   0.303E-02    0.929E-03
DAV:   6    -0.132484501031E+03    0.59480E-05   -0.99025E-06  2046   0.339E-02
   2 F= -.13248450E+03 E0= -.13248129E+03  d E =-.168242E-02
       N       E                     dE             d eps       ncg     rms          rms(c)
DAV:   1    -0.132485934768E+03   -0.14278E-02   -0.17718E-01  2628   0.185E+00    0.779E-02
DAV:   2    -0.132486299599E+03   -0.36483E-03   -0.64019E-03  3008   0.344E-01    0.658E-02
DAV:   3    -0.132486220683E+03    0.78915E-04   -0.25210E-04  3004   0.786E-02    0.468E-02
DAV:   4    -0.132486137707E+03    0.82977E-04   -0.57514E-04  3006   0.108E-01    0.308E-02
DAV:   5    -0.132486117409E+03    0.20297E-04   -0.73137E-05  3010   0.519E-02    0.270E-02
DAV:   6    -0.132486104489E+03    0.12921E-04   -0.58280E-05  2668   0.361E-02    0.116E-02
DAV:   7    -0.132486093170E+03    0.11319E-04   -0.89131E-06  2032   0.363E-02    0.570E-03
DAV:   8    -0.132486090286E+03    0.28839E-05   -0.21461E-05  2244   0.304E-02
   3 F= -.13248609E+03 E0= -.13248301E+03  d E =-.327167E-02
       N       E                     dE             d eps       ncg     rms          rms(c)
DAV:   1    -0.132487018260E+03   -0.92509E-03   -0.12558E-01  2616   0.148E+00    0.473E-02
DAV:   2    -0.132487260655E+03   -0.24239E-03   -0.28152E-03  2888   0.202E-01    0.262E-02
DAV:   3    -0.132487245476E+03    0.15179E-04   -0.44720E-05  2914   0.349E-02    0.177E-02
DAV:   4    -0.132487236461E+03    0.90147E-05   -0.22602E-05  2038   0.279E-02    0.808E-03
DAV:   5    -0.132487233536E+03    0.29245E-05   -0.10477E-05  1738   0.225E-02    0.440E-03
DAV:   6    -0.132487233076E+03    0.46058E-06   -0.67408E-06  1572   0.144E-02
   4 F= -.13248723E+03 E0= -.13248420E+03  d E =-.114279E-02
       N       E                     dE             d eps       ncg     rms          rms(c)
DAV:   1    -0.132487799636E+03   -0.56610E-03   -0.11309E+00  2612   0.444E+00    0.138E-01
DAV:   2    -0.132489954109E+03   -0.21545E-02   -0.25047E-02  2908   0.602E-01    0.789E-02
DAV:   3    -0.132489800771E+03    0.15334E-03   -0.34655E-04  3098   0.106E-01    0.528E-02
DAV:   4    -0.132489691913E+03    0.10886E-03   -0.21191E-04  3076   0.102E-01    0.231E-02
DAV:   5    -0.132489657405E+03    0.34508E-04   -0.12289E-04  3028   0.806E-02    0.132E-02
DAV:   6    -0.132489643253E+03    0.14152E-04   -0.57768E-05  2828   0.503E-02    0.897E-03
DAV:   7    -0.132489622623E+03    0.20630E-04   -0.91427E-06  1846   0.463E-02    0.805E-03
DAV:   8    -0.132489611436E+03    0.11187E-04   -0.13737E-05  1912   0.333E-02    0.726E-03
DAV:   9    -0.132489587040E+03    0.24396E-04   -0.13955E-05  2110   0.657E-02    0.408E-03
DAV:  10    -0.132489562690E+03    0.24350E-04   -0.33860E-05  2744   0.904E-02    0.688E-03
DAV:  11    -0.132489553500E+03    0.91896E-05   -0.32128E-05  2504   0.541E-02
   5 F= -.13248955E+03 E0= -.13248669E+03  d E =-.346321E-02
       N       E                     dE             d eps       ncg     rms          rms(c)
DAV:   1    -0.132482005735E+03    0.75570E-02   -0.45303E+00  2668   0.898E+00    0.269E-01
DAV:   2    -0.132490615854E+03   -0.86101E-02   -0.99400E-02  2902   0.122E+00    0.159E-01
DAV:   3    -0.132490016367E+03    0.59949E-03   -0.13261E-03  3098   0.207E-01    0.105E-01
DAV:   4    -0.132489593122E+03    0.42325E-03   -0.82846E-04  3098   0.202E-01    0.434E-02
DAV:   5    -0.132489493689E+03    0.99433E-04   -0.51233E-04  3044   0.148E-01    0.251E-02
DAV:   6    -0.132489449459E+03    0.44230E-04   -0.18701E-04  3004   0.848E-02    0.174E-02
DAV:   7    -0.132489382716E+03    0.66743E-04   -0.35286E-05  2656   0.757E-02    0.153E-02
DAV:   8    -0.132489343516E+03    0.39200E-04   -0.29829E-05  2588   0.581E-02    0.118E-02
DAV:   9    -0.132489241300E+03    0.10222E-03   -0.58484E-05  3136   0.147E-01    0.686E-03
DAV:  10    -0.132489180767E+03    0.60532E-04   -0.84806E-05  3042   0.116E-01    0.736E-03
DAV:  11    -0.132489117005E+03    0.63763E-04   -0.86169E-05  3434   0.171E-01    0.740E-03
DAV:  12    -0.132489097039E+03    0.19966E-04   -0.13398E-04  3464   0.149E-01    0.606E-03
DAV:  13    -0.132489108778E+03   -0.11739E-04   -0.17345E-04  2742   0.459E-02    0.141E-02
DAV:  14    -0.132489103953E+03    0.48258E-05   -0.10578E-05  1760   0.260E-02
   6 F= -.13248910E+03 E0= -.13248660E+03  d E =-.301367E-02
       N       E                     dE             d eps       ncg     rms          rms(c)
DAV:   1    -0.132487944960E+03    0.11638E-02   -0.15185E+00  2620   0.516E+00    0.154E-01
DAV:   2    -0.132490669765E+03   -0.27248E-02   -0.32014E-02  2910   0.695E-01    0.865E-02
DAV:   3    -0.132490482780E+03    0.18699E-03   -0.47650E-04  3090   0.114E-01    0.601E-02
DAV:   4    -0.132490349954E+03    0.13283E-03   -0.30506E-04  3092   0.108E-01    0.278E-02
DAV:   5    -0.132490302529E+03    0.47425E-04   -0.15539E-04  3060   0.918E-02    0.175E-02
DAV:   6    -0.132490290602E+03    0.11928E-04   -0.95541E-05  2886   0.546E-02    0.121E-02
DAV:   7    -0.132490275935E+03    0.14666E-04   -0.17756E-05  1946   0.337E-02    0.837E-03
DAV:   8    -0.132490261890E+03    0.14045E-04   -0.46583E-06  1846   0.349E-02    0.734E-03
DAV:   9    -0.132490233327E+03    0.28564E-04   -0.33022E-05  2648   0.830E-02    0.769E-03
DAV:  10    -0.132490215245E+03    0.18082E-04   -0.26758E-05  2334   0.623E-02    0.576E-03
DAV:  11    -0.132490201273E+03    0.13972E-04   -0.21518E-05  2358   0.695E-02    0.511E-03
DAV:  12    -0.132490192906E+03    0.83667E-05   -0.23101E-05  2416   0.752E-02
   7 F= -.13249019E+03 E0= -.13248749E+03  d E =-.410262E-02
       N       E                     dE             d eps       ncg     rms          rms(c)
DAV:   1    -0.132490979493E+03   -0.77822E-03   -0.34254E-01  2688   0.251E+00    0.717E-02
DAV:   2    -0.132491643807E+03   -0.66431E-03   -0.73562E-03  2862   0.341E-01    0.422E-02
DAV:   3    -0.132491601858E+03    0.41949E-04   -0.91489E-05  3028   0.453E-02    0.286E-02
DAV:   4    -0.132491571056E+03    0.30802E-04   -0.60924E-05  2900   0.451E-02    0.127E-02
DAV:   5    -0.132491558437E+03    0.12619E-04   -0.31846E-05  2576   0.309E-02    0.650E-03
DAV:   6    -0.132491552873E+03    0.55636E-05   -0.75835E-06  1632   0.151E-02
   8 F= -.13249155E+03 E0= -.13248892E+03  d E =-.135997E-02
       N       E                     dE             d eps       ncg     rms          rms(c)
DAV:   1    -0.132489043580E+03    0.25149E-02   -0.30874E+00  2692   0.754E+00    0.217E-01
DAV:   2    -0.132495109240E+03   -0.60657E-02   -0.66957E-02  2836   0.103E+00    0.125E-01
DAV:   3    -0.132494727664E+03    0.38158E-03   -0.73153E-04  3078   0.129E-01    0.856E-02
DAV:   4    -0.132494419126E+03    0.30854E-03   -0.60431E-04  3060   0.144E-01    0.354E-02
DAV:   5    -0.132494309050E+03    0.11008E-03   -0.31832E-04  2904   0.102E-01    0.219E-02
DAV:   6    -0.132494260222E+03    0.48827E-04   -0.87061E-05  2964   0.530E-02    0.129E-02
DAV:   7    -0.132494175343E+03    0.84880E-04   -0.18847E-05  2182   0.615E-02    0.856E-03
DAV:   8    -0.132493999189E+03    0.17615E-03   -0.82852E-05  3234   0.159E-01    0.175E-02
DAV:   9    -0.132493909588E+03    0.89602E-04   -0.11048E-04  3304   0.127E-01    0.131E-02
DAV:  10    -0.132493786178E+03    0.12341E-03   -0.16386E-04  3866   0.232E-01    0.156E-02
DAV:  11    -0.132493754520E+03    0.31658E-04   -0.23082E-04  2956   0.142E-01    0.155E-02
DAV:  12    -0.132493749717E+03    0.48030E-05   -0.10996E-04  2956   0.853E-02    0.657E-03
DAV:  13    -0.132493754827E+03   -0.51103E-05   -0.65927E-05  2630   0.306E-02
   9 F= -.13249375E+03 E0= -.13249131E+03  d E =-.356192E-02
       N       E                     dE             d eps       ncg     rms          rms(c)
DAV:   1    -0.132493322200E+03    0.42752E-03   -0.36694E-01  2704   0.259E+00    0.743E-02
DAV:   2    -0.132494062295E+03   -0.74009E-03   -0.81154E-03  2846   0.351E-01    0.441E-02
DAV:   3    -0.132494019888E+03    0.42407E-04   -0.87033E-05  3030   0.440E-02    0.310E-02
DAV:   4    -0.132493986242E+03    0.33646E-04   -0.76939E-05  2884   0.506E-02    0.126E-02
DAV:   5    -0.132493976257E+03    0.99846E-05   -0.38296E-05  2602   0.332E-02    0.842E-03
DAV:   6    -0.132493971920E+03    0.43368E-05   -0.97728E-06  1628   0.170E-02
  10 F= -.13249397E+03 E0= -.13249161E+03  d E =-.377901E-02
       N       E                     dE             d eps       ncg     rms          rms(c)
DAV:   1    -0.132495051447E+03   -0.10752E-02   -0.27931E-01  2656   0.220E+00    0.607E-02
DAV:   2    -0.132495524878E+03   -0.47343E-03   -0.53570E-03  2924   0.288E-01    0.375E-02
DAV:   3    -0.132495492028E+03    0.32851E-04   -0.59056E-05  2884   0.430E-02    0.254E-02
DAV:   4    -0.132495468387E+03    0.23640E-04   -0.11156E-04  2890   0.624E-02    0.962E-03
DAV:   5    -0.132495468885E+03   -0.49801E-06   -0.38078E-05  2478   0.274E-02    0.942E-03
DAV:   6    -0.132495467598E+03    0.12868E-05   -0.38634E-06  1554   0.936E-03
  11 F= -.13249547E+03 E0= -.13249316E+03  d E =-.149568E-02
       N       E                     dE             d eps       ncg     rms          rms(c)
DAV:   1    -0.132494229646E+03    0.12392E-02   -0.25167E+00  2624   0.659E+00    0.186E-01
DAV:   2    -0.132498547464E+03   -0.43178E-02   -0.49285E-02  2932   0.870E-01    0.113E-01
DAV:   3    -0.132498259374E+03    0.28809E-03   -0.58547E-04  3082   0.125E-01    0.779E-02
DAV:   4    -0.132498082846E+03    0.17653E-03   -0.11890E-03  3026   0.184E-01    0.333E-02
DAV:   5    -0.132498092288E+03   -0.94421E-05   -0.29857E-04  2952   0.735E-02    0.346E-02
DAV:   6    -0.132498078327E+03    0.13961E-04   -0.58319E-05  2538   0.365E-02    0.177E-02
DAV:   7    -0.132498074587E+03    0.37403E-05   -0.22407E-05  2122   0.249E-02
  12 F= -.13249807E+03 E0= -.13249593E+03  d E =-.410267E-02
       N       E                     dE             d eps       ncg     rms          rms(c)
DAV:   1    -0.132497789300E+03    0.28903E-03   -0.32900E-01  2624   0.238E+00    0.659E-02
DAV:   2    -0.132498365549E+03   -0.57625E-03   -0.64914E-03  2952   0.315E-01    0.431E-02
DAV:   3    -0.132498325650E+03    0.39899E-04   -0.73442E-05  3002   0.461E-02    0.290E-02
DAV:   4    -0.132498300060E+03    0.25590E-04   -0.17837E-04  2900   0.703E-02    0.133E-02
DAV:   5    -0.132498300746E+03   -0.68578E-06   -0.44299E-05  2602   0.293E-02    0.130E-02
DAV:   6    -0.132498298903E+03    0.18423E-05   -0.63536E-06  1590   0.124E-02
  13 F= -.13249830E+03 E0= -.13249621E+03  d E =-.432698E-02
       N       E                     dE             d eps       ncg     rms          rms(c)
DAV:   1    -0.132498845432E+03   -0.54469E-03   -0.65529E-01  2636   0.348E+00    0.103E-01
DAV:   2    -0.132500070419E+03   -0.12250E-02   -0.14240E-02  2920   0.489E-01    0.597E-02
DAV:   3    -0.132499998846E+03    0.71572E-04   -0.29819E-04  3034   0.822E-02    0.455E-02
DAV:   4    -0.132499941610E+03    0.57236E-04   -0.17642E-04  2876   0.640E-02    0.212E-02
DAV:   5    -0.132499914626E+03    0.26984E-04   -0.74782E-05  2810   0.604E-02    0.192E-02
DAV:   6    -0.132499898552E+03    0.16075E-04   -0.47711E-05  2636   0.555E-02    0.109E-02
DAV:   7    -0.132499894191E+03    0.43602E-05   -0.44021E-05  2430   0.362E-02
  14 F= -.13249989E+03 E0= -.13249787E+03  d E =-.159529E-02
       N       E                     dE             d eps       ncg     rms          rms(c)
DAV:   1    -0.132499328493E+03    0.57006E-03   -0.64793E-01  2636   0.346E+00    0.105E-01
DAV:   2    -0.132500518254E+03   -0.11898E-02   -0.14123E-02  2926   0.493E-01    0.576E-02
DAV:   3    -0.132500443694E+03    0.74559E-04   -0.36200E-04  3036   0.909E-02    0.451E-02
DAV:   4    -0.132500379383E+03    0.64311E-04   -0.13143E-04  2876   0.555E-02    0.228E-02
DAV:   5    -0.132500318556E+03    0.60827E-04   -0.90490E-05  2808   0.808E-02    0.189E-02
DAV:   6    -0.132500290688E+03    0.27869E-04   -0.58112E-05  2910   0.684E-02    0.156E-02
DAV:   7    -0.132500274966E+03    0.15722E-04   -0.63646E-05  2622   0.545E-02    0.108E-02
DAV:   8    -0.132500255208E+03    0.19758E-04   -0.14452E-05  1898   0.316E-02    0.884E-03
DAV:   9    -0.132500212923E+03    0.42285E-04   -0.33290E-05  2654   0.928E-02    0.145E-02
DAV:  10    -0.132500181647E+03    0.31276E-04   -0.41342E-05  2792   0.995E-02    0.127E-02
DAV:  11    -0.132500162084E+03    0.19562E-04   -0.10042E-04  3552   0.124E-01    0.630E-03
DAV:  12    -0.132500163422E+03   -0.13371E-05   -0.75017E-05  2602   0.465E-02
  15 F= -.13250016E+03 E0= -.13249821E+03  d E =-.186452E-02
       N       E                     dE             d eps       ncg     rms          rms(c)
DAV:   1    -0.132499929477E+03    0.23261E-03   -0.77115E-01  2628   0.375E+00    0.102E-01
DAV:   2    -0.132501392366E+03   -0.14629E-02   -0.15746E-02  2898   0.498E-01    0.591E-02
DAV:   3    -0.132501317662E+03    0.74703E-04   -0.16298E-04  3012   0.595E-02    0.409E-02
DAV:   4    -0.132501259074E+03    0.58588E-04   -0.19946E-04  2920   0.872E-02    0.132E-02
DAV:   5    -0.132501261688E+03   -0.26137E-05   -0.87173E-05  2724   0.401E-02    0.147E-02
DAV:   6    -0.132501258268E+03    0.34191E-05   -0.83835E-06  1566   0.129E-02
  16 F= -.13250126E+03 E0= -.13249937E+03  d E =-.109485E-02
       N       E                     dE             d eps       ncg     rms          rms(c)
DAV:   1    -0.132491539284E+03    0.97224E-02   -0.63974E+00  2636   0.108E+01    0.295E-01
DAV:   2    -0.132503749312E+03   -0.12210E-01   -0.13133E-01  2892   0.144E+00    0.174E-01
DAV:   3    -0.132503094012E+03    0.65530E-03   -0.13157E-03  3070   0.173E-01    0.119E-01
DAV:   4    -0.132502557136E+03    0.53688E-03   -0.17333E-03  3062   0.265E-01    0.366E-02
DAV:   5    -0.132502567048E+03   -0.99119E-05   -0.76335E-04  2918   0.119E-01    0.400E-02
DAV:   6    -0.132502532678E+03    0.34370E-04   -0.62449E-05  2846   0.332E-02    0.239E-02
DAV:   7    -0.132502473546E+03    0.59133E-04   -0.11357E-04  2916   0.500E-02    0.159E-02
DAV:   8    -0.132502436447E+03    0.37099E-04   -0.80511E-06  1864   0.476E-02    0.168E-02
DAV:   9    -0.132502355790E+03    0.80656E-04   -0.95239E-05  3594   0.133E-01    0.110E-02
DAV:  10    -0.132502304160E+03    0.51631E-04   -0.76653E-05  3160   0.100E-01    0.146E-02
DAV:  11    -0.132502214849E+03    0.89310E-04   -0.91515E-05  3300   0.183E-01    0.157E-02
DAV:  12    -0.132502191482E+03    0.23368E-04   -0.13326E-04  2924   0.130E-01    0.173E-02
DAV:  13    -0.132502196025E+03   -0.45430E-05   -0.13238E-04  2670   0.551E-02    0.599E-03
DAV:  14    -0.132502196879E+03   -0.85393E-06   -0.15620E-05  1820   0.161E-02
  17 F= -.13250220E+03 E0= -.13250042E+03  d E =-.203346E-02
       N       E                     dE             d eps       ncg     rms          rms(c)
DAV:   1    -0.132502083931E+03    0.11209E-03   -0.92347E-01  2612   0.409E+00    0.113E-01
DAV:   2    -0.132503848478E+03   -0.17645E-02   -0.19518E-02  2872   0.558E-01    0.709E-02
DAV:   3    -0.132503743239E+03    0.10524E-03   -0.24737E-04  3024   0.765E-02    0.514E-02
DAV:   4    -0.132503658733E+03    0.84506E-04   -0.40353E-04  2906   0.109E-01    0.209E-02
DAV:   5    -0.132503659619E+03   -0.88564E-06   -0.12464E-04  2738   0.524E-02    0.229E-02
DAV:   6    -0.132503653880E+03    0.57391E-05   -0.26751E-05  2156   0.226E-02
  18 F= -.13250365E+03 E0= -.13250191E+03  d E =-.145700E-02
       N       E                     dE             d eps       ncg     rms          rms(c)
DAV:   1    -0.132502884324E+03    0.77529E-03   -0.65867E-01  2612   0.346E+00    0.980E-02
DAV:   2    -0.132504155826E+03   -0.12715E-02   -0.14150E-02  2892   0.476E-01    0.612E-02
DAV:   3    -0.132504075600E+03    0.80226E-04   -0.18770E-04  3002   0.695E-02    0.444E-02
DAV:   4    -0.132504008926E+03    0.66674E-04   -0.29922E-04  2866   0.969E-02    0.186E-02
DAV:   5    -0.132504007551E+03    0.13754E-05   -0.10321E-04  2746   0.508E-02    0.206E-02
DAV:   6    -0.132504002730E+03    0.48209E-05   -0.23720E-05  2004   0.215E-02
  19 F= -.13250400E+03 E0= -.13250228E+03  d E =-.180585E-02
       N       E                     dE             d eps       ncg     rms          rms(c)
DAV:   1    -0.132504530314E+03   -0.52276E-03   -0.24853E-01  2628   0.213E+00    0.636E-02
DAV:   2    -0.132505025251E+03   -0.49494E-03   -0.57088E-03  2874   0.304E-01    0.459E-02
DAV:   3    -0.132504989980E+03    0.35271E-04   -0.96057E-05  2946   0.507E-02    0.330E-02
DAV:   4    -0.132504968155E+03    0.21825E-04   -0.23563E-04  2892   0.715E-02    0.177E-02
DAV:   5    -0.132504965157E+03    0.29974E-05   -0.34194E-05  2392   0.297E-02    0.169E-02
DAV:   6    -0.132504960378E+03    0.47794E-05   -0.23488E-05  2194   0.244E-02
  20 F= -.13250496E+03 E0= -.13250324E+03  d E =-.957648E-03
       N       E                     dE             d eps       ncg     rms          rms(c)
DAV:   1    -0.132504959010E+03    0.61478E-05   -0.10297E-01  2628   0.137E+00    0.433E-02
DAV:   2    -0.132505165335E+03   -0.20633E-03   -0.24831E-03  2888   0.202E-01    0.306E-02
DAV:   3    -0.132505147802E+03    0.17533E-04   -0.51642E-05  2890   0.369E-02    0.219E-02
DAV:   4    -0.132505132921E+03    0.14880E-04   -0.10347E-04  2816   0.477E-02    0.122E-02
DAV:   5    -0.132505128578E+03    0.43436E-05   -0.13897E-05  1728   0.235E-02    0.122E-02
DAV:   6    -0.132505122981E+03    0.55963E-05   -0.13601E-05  1956   0.237E-02
  21 F= -.13250512E+03 E0= -.13250340E+03  d E =-.112025E-02
       N       E                     dE             d eps       ncg     rms          rms(c)
DAV:   1    -0.132505257624E+03   -0.12905E-03   -0.43617E-02  2760   0.898E-01    0.288E-02
DAV:   2    -0.132505329746E+03   -0.72122E-04   -0.98286E-04  2936   0.131E-01    0.167E-02
DAV:   3    -0.132505320857E+03    0.88891E-05   -0.33578E-05  2610   0.311E-02    0.115E-02
DAV:   4    -0.132505314563E+03    0.62941E-05   -0.52273E-06  1596   0.166E-02    0.716E-03
DAV:   5    -0.132505304463E+03    0.10100E-04   -0.91116E-06  1862   0.353E-02    0.380E-03
DAV:   6    -0.132505303346E+03    0.11166E-05   -0.10837E-05  1572   0.164E-02
  22 F= -.13250530E+03 E0= -.13250358E+03  d E =-.180365E-03
