 vasp.5.3.5 31Mar14 (build Apr 08 2024 10:12:10) complex                        
  
 executed on             LinuxIFC date 2024.07.29  17:45:04
 running on    8 total cores
 distrk:  each k-point on    8 cores,    1 groups
 distr:  one band on NCORES_PER_BAND=   4 cores,    2 groups


--------------------------------------------------------------------------------------------------------


 INCAR:
 POTCAR:    PAW_PBE O 08Apr2002                   
 POTCAR:    PAW_PBE Mg 13Apr2007                  
 POTCAR:    PAW_PBE Al 04Jan2001                  
 POTCAR:    PAW_PBE O 08Apr2002                   
   VRHFIN =O: s2p4                                                              
   LEXCH  = PE                                                                  
   EATOM  =   432.3788 eV,   31.7789 Ry                                         
                                                                                
   TITEL  = PAW_PBE O 08Apr2002                                                 
   LULTRA =        F    use ultrasoft PP ?                                      
   IUNSCR =        1    unscreen: 0-lin 1-nonlin 2-no                           
   RPACOR =    1.200    partial core radius                                     
   POMASS =   16.000; ZVAL   =    6.000    mass and valenz                      
   RCORE  =    1.520    outmost cutoff radius                                   
   RWIGS  =    1.550; RWIGS  =    0.820    wigner-seitz radius (au A)           
   ENMAX  =  400.000; ENMIN  =  300.000 eV                                      
   ICORE  =        2    local potential                                         
   LCOR   =        T    correct aug charges                                     
   LPAW   =        T    paw PP                                                  
   EAUG   =  605.392                                                            
   DEXC   =    0.000                                                            
   RMAX   =    1.553    core radius for proj-oper                               
   RAUG   =    1.300    factor for augmentation sphere                          
   RDEP   =    1.550    radius for radial grids                                 
   RDEPT  =    1.329    core radius for aug-charge                              
                                                                                
   Atomic configuration                                                         
    4 entries                                                                   
     n  l   j            E        occ.                                          
     1  0  0.50      -514.6923   2.0000                                         
     2  0  0.50       -23.9615   2.0000                                         
     2  1  0.50        -9.0305   4.0000                                         
     3  2  1.50        -9.5241   0.0000                                         
   Description                                                                  
     l       E           TYP  RCUT    TYP  RCUT                                 
     0    -23.9615318     23  1.200                                             
     0     -9.5240782     23  1.200                                             
     1     -9.0304911     23  1.520                                             
     1      8.1634956     23  1.520                                             
     2     -9.5240782      7  1.500                                             
  local pseudopotential read in
  partial core-charges read in
  partial kinetic energy density read in
  kinetic energy density of atom read in
  atomic valenz-charges read in
  non local Contribution for L=           0  read in
    real space projection operators read in
  non local Contribution for L=           0  read in
    real space projection operators read in
  non local Contribution for L=           1  read in
    real space projection operators read in
  non local Contribution for L=           1  read in
    real space projection operators read in
    PAW grid and wavefunctions read in
 
   number of l-projection  operators is LMAX  =           4
   number of lm-projection operators is LMMAX =           8
 
 POTCAR:    PAW_PBE Mg 13Apr2007                  
   VRHFIN =Mg: s2p0                                                             
   LEXCH  = PE                                                                  
   EATOM  =    23.0369 eV,    1.6932 Ry                                         
                                                                                
   TITEL  = PAW_PBE Mg 13Apr2007                                                
   LULTRA =        F    use ultrasoft PP ?                                      
   IUNSCR =        1    unscreen: 0-lin 1-nonlin 2-no                           
   RPACOR =    1.500    partial core radius                                     
   POMASS =   24.305; ZVAL   =    2.000    mass and valenz                      
   RCORE  =    2.000    outmost cutoff radius                                   
   RWIGS  =    2.880; RWIGS  =    1.524    wigner-seitz radius (au A)           
   ENMAX  =  200.000; ENMIN  =  100.000 eV                                      
   RCLOC  =    1.506    cutoff for local pot                                    
   LCOR   =        T    correct aug charges                                     
   LPAW   =        T    paw PP                                                  
   EAUG   =  454.734                                                            
   DEXC   =    0.000                                                            
   RMAX   =    2.045    core radius for proj-oper                               
   RAUG   =    1.300    factor for augmentation sphere                          
   RDEP   =    2.025    radius for radial grids                                 
   RDEPT  =    1.942    core radius for aug-charge                              
                                                                                
   Atomic configuration                                                         
    6 entries                                                                   
     n  l   j            E        occ.                                          
     1  0  0.50     -1259.6230   2.0000                                         
     2  0  0.50       -79.8442   2.0000                                         
     2  1  1.50       -46.6121   6.0000                                         
     3  0  0.50        -4.7055   2.0000                                         
     3  1  0.50        -1.3660   0.0000                                         
     3  2  1.50        -1.3606   0.0000                                         
   Description                                                                  
     l       E           TYP  RCUT    TYP  RCUT                                 
     0     -4.7054661     23  2.000                                             
     0     27.2116520     23  2.000                                             
     1      1.3605826     23  2.000                                             
     1     27.2116520     23  2.000                                             
     2     -1.3605826     23  2.000                                             
  local pseudopotential read in
  partial core-charges read in
  partial kinetic energy density read in
  atomic valenz-charges read in
  non local Contribution for L=           0  read in
    real space projection operators read in
  non local Contribution for L=           0  read in
    real space projection operators read in
  non local Contribution for L=           1  read in
    real space projection operators read in
  non local Contribution for L=           1  read in
    real space projection operators read in
  non local Contribution for L=           2  read in
    real space projection operators read in
    PAW grid and wavefunctions read in
 
   number of l-projection  operators is LMAX  =           5
   number of lm-projection operators is LMMAX =          13
 
 POTCAR:    PAW_PBE Al 04Jan2001                  
   VRHFIN =Al: s2p1                                                             
   LEXCH  = PE                                                                  
   EATOM  =    53.5387 eV,    3.9350 Ry                                         
                                                                                
   TITEL  = PAW_PBE Al 04Jan2001                                                
   LULTRA =        F    use ultrasoft PP ?                                      
   IUNSCR =        1    unscreen: 0-lin 1-nonlin 2-no                           
   RPACOR =    1.500    partial core radius                                     
   POMASS =   26.981; ZVAL   =    3.000    mass and valenz                      
   RCORE  =    1.900    outmost cutoff radius                                   
   RWIGS  =    2.650; RWIGS  =    1.402    wigner-seitz radius (au A)           
   ENMAX  =  240.300; ENMIN  =  180.225 eV                                      
   ICORE  =        2    local potential                                         
   LCOR   =        T    correct aug charges                                     
   LPAW   =        T    paw PP                                                  
   EAUG   =  291.052                                                            
   DEXC   =    0.000                                                            
   RMAX   =    1.939    core radius for proj-oper                               
   RAUG   =    1.300    factor for augmentation sphere                          
   RDEP   =    1.966    radius for radial grids                                 
   RDEPT  =    1.856    core radius for aug-charge                              
                                                                                
   Atomic configuration                                                         
    6 entries                                                                   
     n  l   j            E        occ.                                          
     1  0  0.50     -1511.1048   2.0000                                         
     2  0  0.50      -108.1629   2.0000                                         
     2  1  1.50       -69.6402   6.0000                                         
     3  0  0.50        -7.7528   2.0000                                         
     3  1  1.50        -2.7121   1.0000                                         
     3  2  2.50        -2.7212   0.0000                                         
   Description                                                                  
     l       E           TYP  RCUT    TYP  RCUT                                 
     0     -7.7528455     23  1.900                                             
     0     -3.3096929     23  1.900                                             
     1     -2.7120682     23  1.900                                             
     1     13.6058260     23  1.900                                             
     2     -2.7211652      7  1.900                                             
  local pseudopotential read in
  partial core-charges read in
  partial kinetic energy density read in
  atomic valenz-charges read in
  non local Contribution for L=           0  read in
    real space projection operators read in
  non local Contribution for L=           0  read in
    real space projection operators read in
  non local Contribution for L=           1  read in
    real space projection operators read in
  non local Contribution for L=           1  read in
    real space projection operators read in
    PAW grid and wavefunctions read in
 
   number of l-projection  operators is LMAX  =           4
   number of lm-projection operators is LMMAX =           8
 

 ----------------------------------------------------------------------------- 
|                                                                             |
|  ADVICE TO THIS USER RUNNING 'VASP/VAMP'   (HEAR YOUR MASTER'S VOICE ...):  |
|                                                                             |
|      You have a (more or less) 'large supercell' and for larger cells       |
|      it might be more efficient to use real space projection opertators     |
|      So try LREAL= Auto  in the INCAR   file.                               |
|      Mind: At the moment your POTCAR file does not contain real space       |
|       projectors, and has to be modified,  BUT if you                       |
|      want to do an extremely  accurate calculation you might also keep the  |
|      reciprocal projection scheme          (i.e. LREAL=.FALSE.)             |
|                                                                             |
 ----------------------------------------------------------------------------- 

  PAW_PBE O 08Apr2002                   :
 energy of atom  1       EATOM= -432.3788
 kinetic energy error for atom=    0.0208 (will be added to EATOM!!)
  PAW_PBE Mg 13Apr2007                  :
 energy of atom  2       EATOM=  -23.0369
 kinetic energy error for atom=    0.0000 (will be added to EATOM!!)
  PAW_PBE Al 04Jan2001                  :
 energy of atom  3       EATOM=  -53.5387
 kinetic energy error for atom=    0.0002 (will be added to EATOM!!)
 
 
 POSCAR: Layer                                   
  positions in direct lattice
  velocities in cartesian coordinates
 exchange correlation table for  LEXCH =        8
   RHO(1)=    0.500       N(1)  =     2000
   RHO(2)=  100.500       N(2)  =     4000
 


--------------------------------------------------------------------------------------------------------


 ion  position               nearest neighbor table
   1  0.000  0.000  0.353-  17 2.15  17 2.15  17 2.15  14 2.15  14 2.15  14 2.15
   2  0.333  0.667  0.411-  14 2.15  14 2.15  11 2.15  11 2.15  14 2.15  11 2.15
   3  0.000  0.000  0.526-  15 2.15  15 2.15  15 2.15  18 2.15  18 2.15  18 2.15
   4  0.333  0.667  0.583-  12 2.15  12 2.15  12 2.15  15 2.15  15 2.15  15 2.15
   5  0.000  0.000  0.698-  16 2.15  16 2.15  16 2.15  19 2.15  19 2.15  19 2.15
   6  0.333  0.667  0.756-  16 2.15  16 2.15  16 2.15  13 2.17  13 2.17  13 2.17
   7  0.667  0.333  0.296-  17 2.15  17 2.15  17 2.15  10 2.17  10 2.17  10 2.17
   8  0.667  0.333  0.468-  11 2.15  11 2.15  11 2.15  18 2.15  18 2.15  18 2.15
   9  0.667  0.333  0.641-  12 2.15  12 2.15  12 2.15  19 2.15  19 2.15  19 2.15
  10  0.000  0.000  0.266-   7 2.17   7 2.17   7 2.17  17 3.11  17 3.11  17 3.11  21 3.17
  11  0.000  0.000  0.440-   2 2.15   2 2.15   2 2.15   8 2.15   8 2.15   8 2.15  14 3.08  14 3.08
                            14 3.08  18 3.08  18 3.08  18 3.08
  12  0.000  0.000  0.612-   9 2.15   9 2.15   9 2.15   4 2.15   4 2.15   4 2.15  19 3.08  19 3.08
                            19 3.08  15 3.08  15 3.08  15 3.08
  13  0.000  0.000  0.785-   6 2.17   6 2.17   6 2.17  16 3.11  16 3.11  16 3.11  24 3.17
  14  0.667  0.333  0.382-   2 2.15   2 2.15   2 2.15   1 2.15   1 2.15   1 2.15  11 3.08  11 3.08
                            11 3.08  17 3.08  17 3.08  17 3.08
  15  0.667  0.333  0.555-   3 2.15   3 2.15   3 2.15   4 2.15   4 2.15   4 2.15  18 3.08  18 3.08
                            18 3.08  12 3.08  12 3.08  12 3.08
  16  0.667  0.333  0.727-   5 2.15   5 2.15   5 2.15   6 2.15   6 2.15   6 2.15  19 3.08  19 3.08
                            19 3.08  13 3.11  13 3.11  13 3.11
  17  0.333  0.667  0.325-   1 2.15   1 2.15   1 2.15   7 2.15   7 2.15   7 2.15  14 3.08  14 3.08
                            14 3.08  10 3.11  10 3.11  10 3.11
  18  0.333  0.667  0.497-   3 2.15   3 2.15   3 2.15   8 2.15   8 2.15   8 2.15  15 3.08  15 3.08
                            15 3.08  11 3.08  11 3.08  11 3.08
  19  0.333  0.667  0.670-   5 2.15   5 2.15   5 2.15   9 2.15   9 2.15   9 2.15  16 3.08  16 3.08
                            16 3.08  12 3.08  12 3.08  12 3.08
  20  0.000  0.000  0.026-  25 3.00  25 3.00  25 3.00  23 3.00  23 3.00  23 3.00
  21  0.000  0.000  0.195-  22 3.09  22 3.09  22 3.09  10 3.17
  22  0.667  0.333  0.137-  23 3.01  23 3.01  23 3.01  21 3.09  21 3.09  21 3.09
  23  0.333  0.667  0.081-  20 3.00  20 3.00  20 3.00  22 3.01  22 3.01  22 3.01
  24  0.000  0.000  0.857-  26 3.09  26 3.09  26 3.09  13 3.17
  25  0.667  0.333  0.970-  20 3.00  20 3.00  20 3.00  26 3.01  26 3.01  26 3.01
  26  0.333  0.667  0.915-  25 3.01  25 3.01  25 3.01  24 3.09  24 3.09  24 3.09
 
  LATTYP: Found a hexagonal cell.
 ALAT       =     2.9929628358
 C/A-ratio  =    14.7965089744
  
  Lattice vectors:
  
 A1 = (   2.5919820457,  -1.4964810762,   0.0000000000)
 A2 = (   0.0000000000,   2.9929621524,   0.0000000000)
 A3 = (   0.0000000000,  -0.0000000000,  44.2854014599)


Analysis of symmetry for initial positions (statically):
=====================================================================
 Subroutine PRICEL returns:
 Original cell was already a primitive cell.
 

 Routine SETGRP: Setting up the symmetry group for a 
 hexagonal supercell.


 Subroutine GETGRP returns: Found  6 space group operations
 (whereof  6 operations were pure point group operations)
 out of a pool of 24 trial point group operations.


The static configuration has the point symmetry C_3v.


Analysis of symmetry for dynamics (positions and initial velocities):
=====================================================================
 Subroutine PRICEL returns:
 Original cell was already a primitive cell.
 

 Routine SETGRP: Setting up the symmetry group for a 
 hexagonal supercell.


 Subroutine GETGRP returns: Found  6 space group operations
 (whereof  6 operations were pure point group operations)
 out of a pool of 24 trial point group operations.


The dynamic configuration has the point symmetry C_3v.


Analysis of constrained symmetry for selective dynamics:
=====================================================================
 Subroutine PRICEL returns:
 Original cell was already a primitive cell.
 

 Routine SETGRP: Setting up the symmetry group for a 
 hexagonal supercell.


 Subroutine GETGRP returns: Found  6 space group operations
 (whereof  6 operations were pure point group operations)
 out of a pool of 24 trial point group operations.


The constrained configuration has the point symmetry C_3v.
 
 
 KPOINTS: K-Spacing Value to Generate K-Mesh: 0.02

Automatic generation of k-mesh.
Space group operators:
 irot       det(A)        alpha          n_x          n_y          n_z        tau_x        tau_y        tau_z
    1     1.000000     0.000000     1.000000     0.000000     0.000000     0.000000     0.000000     0.000000
    2     1.000000   120.000000    -0.000000     0.000000    -1.000000     0.000000     0.000000     0.000000
    3     1.000000   120.000000    -0.000000    -0.000000     1.000000     0.000000     0.000000     0.000000
    4    -1.000000   180.000000    -0.866025     0.500000     0.000000     0.000000     0.000000     0.000000
    5    -1.000000   180.000000     0.000000     1.000000     0.000000     0.000000     0.000000     0.000000
    6    -1.000000   180.000000    -0.866025    -0.500000    -0.000000     0.000000     0.000000     0.000000
 
 Subroutine IBZKPT returns following result:
 ===========================================
 
 Found     21 irreducible k-points:
 
 Following reciprocal coordinates:
            Coordinates               Weight
  0.000000  0.000000  0.000000      1.000000
  0.076923  0.000000 -0.000000      6.000000
  0.153846 -0.000000 -0.000000      6.000000
  0.230769  0.000000 -0.000000      6.000000
  0.307692  0.000000 -0.000000      6.000000
  0.384615  0.000000 -0.000000      6.000000
  0.461538  0.000000 -0.000000      6.000000
  0.076923  0.076923 -0.000000      6.000000
  0.153846  0.076923  0.000000     12.000000
  0.230769  0.076923 -0.000000     12.000000
  0.307692  0.076923 -0.000000     12.000000
  0.384615  0.076923 -0.000000     12.000000
  0.461538  0.076923  0.000000      6.000000
  0.153846  0.153846  0.000000      6.000000
  0.230769  0.153846  0.000000     12.000000
  0.307692  0.153846  0.000000     12.000000
  0.384615  0.153846  0.000000     12.000000
  0.230769  0.230769  0.000000      6.000000
  0.307692  0.230769  0.000000     12.000000
  0.384615  0.230769  0.000000      6.000000
  0.307692  0.307692  0.000000      6.000000
 
 Following cartesian coordinates:
            Coordinates               Weight
  0.000000  0.000000  0.000000      1.000000
  0.029677 -0.000000 -0.000000      6.000000
  0.059355 -0.000000 -0.000000      6.000000
  0.089032 -0.000000 -0.000000      6.000000
  0.118709 -0.000000 -0.000000      6.000000
  0.148387 -0.000000 -0.000000      6.000000
  0.178064 -0.000000 -0.000000      6.000000
  0.044516  0.025701  0.000000      6.000000
  0.074193  0.025701  0.000000     12.000000
  0.103871  0.025701  0.000000     12.000000
  0.133548  0.025701  0.000000     12.000000
  0.163225  0.025701  0.000000     12.000000
  0.192903  0.025701  0.000000      6.000000
  0.089032  0.051403  0.000000      6.000000
  0.118709  0.051403  0.000000     12.000000
  0.148387  0.051403  0.000000     12.000000
  0.178064  0.051403  0.000000     12.000000
  0.133548  0.077104  0.000000      6.000000
  0.163225  0.077104  0.000000     12.000000
  0.192903  0.077104  0.000000      6.000000
  0.178064  0.102805  0.000000      6.000000
 


--------------------------------------------------------------------------------------------------------




 Dimension of arrays:
   k-points           NKPTS =     21   k-points in BZ     NKDIM =     21   number of bands    NBANDS=     62
   number of dos      NEDOS =    301   number of ions     NIONS =     26
   non local maximal  LDIM  =      5   non local SUM 2l+1 LMDIM =     13
   total plane-waves  NPLWV = 193536
   max r-space proj   IRMAX =      1   max aug-charges    IRDMAX= 191621
   dimension x,y,z NGX =    24 NGY =   24 NGZ =  336
   dimension x,y,z NGXF=    48 NGYF=   48 NGZF=  672
   support grid    NGXF=    96 NGYF=   96 NGZF= 1344
   ions per type =               9  10   7
 NGX,Y,Z   is equivalent  to a cutoff of  13.33, 13.33, 12.61 a.u.
 NGXF,Y,Z  is equivalent  to a cutoff of  26.66, 26.66, 25.23 a.u.


 I would recommend the setting:
   dimension x,y,z NGX =    22 NGY =   22 NGZ =  329
 SYSTEM =  unknown system                          
 POSCAR =  Layer                                   

 Startparameter for this run:
   NWRITE =      2    write-flag & timer
   PREC   = accura    normal or accurate (medium, high low for compatibility)
   ISTART =      0    job   : 0-new  1-cont  2-samecut
   ICHARG =      2    charge: 1-file 2-atom 10-const
   ISPIN  =      1    spin polarized calculation?
   LNONCOLLINEAR =      F non collinear calculations
   LSORBIT =      F    spin-orbit coupling
   INIWAV =      1    electr: 0-lowe 1-rand  2-diag
   LASPH  =      F    aspherical Exc in radial PAW
   METAGGA=      F    non-selfconsistent MetaGGA calc.

 Electronic Relaxation 1
   ENCUT  =  520.0 eV  38.22 Ry    6.18 a.u.   5.56  5.56 82.34*2*pi/ulx,y,z
   ENINI  =  520.0     initial cutoff
   ENAUG  =  605.4 eV  augmentation charge cutoff
   NELM   =    100;   NELMIN=  6; NELMDL=  0     # of ELM steps 
   EDIFF  = 0.1E-04   stopping-criterion for ELM
   LREAL  =      F    real-space projection
   NLSPLINE    = F    spline interpolate recip. space projectors
   LCOMPAT=      F    compatible to vasp.4.4
   GGA_COMPAT  = T    GGA compatible to vasp.4.4-vasp.4.6
   LMAXPAW     = -100 max onsite density
   LMAXMIX     =    2 max onsite mixed and CHGCAR
   VOSKOWN=      0    Vosko Wilk Nusair interpolation
   ROPT   =    0.00000   0.00000   0.00000
 Ionic relaxation
   EDIFFG = -.2E-01   stopping-criterion for IOM
   NSW    =    500    number of steps for IOM
   NBLOCK =      1;   KBLOCK =    500    inner block; outer block 
   IBRION =      2    ionic relax: 0-MD 1-quasi-New 2-CG
   NFREE  =      1    steps in history (QN), initial steepest desc. (CG)
   ISIF   =      2    stress and relaxation
   IWAVPR =     11    prediction:  0-non 1-charg 2-wave 3-comb
   ISYM   =      2    0-nonsym 1-usesym 2-fastsym
   LCORR  =      T    Harris-Foulkes like correction to forces

   POTIM  = 0.5000    time-step for ionic-motion
   TEIN   =    0.0    initial temperature
   TEBEG  =    0.0;   TEEND  =   0.0 temperature during run
   SMASS  =  -3.00    Nose mass-parameter (am)
   estimated Nose-frequenzy (Omega)   =  0.10E-29 period in steps =****** mass=  -0.205E-27a.u.
   SCALEE = 1.0000    scale energy and forces
   NPACO  =    256;   APACO  = 16.0  distance and # of slots for P.C.
   PSTRESS=    0.0 pullay stress

  Mass of Ions in am
   POMASS =  16.00 24.30 26.98
  Ionic Valenz
   ZVAL   =   6.00  2.00  3.00
  Atomic Wigner-Seitz radii
   RWIGS  =  -1.00 -1.00 -1.00
  virtual crystal weights 
   VCA    =   1.00  1.00  1.00
   NELECT =      95.0000    total number of electrons
   NUPDOWN=      -1.0000    fix difference up-down

 DOS related values:
   EMIN   =  10.00;   EMAX   =-10.00  energy-range for DOS
   EFERMI =   0.00
   ISMEAR =     0;   SIGMA  =   0.05  broadening in eV -4-tet -1-fermi 0-gaus

 Electronic relaxation 2 (details)
   IALGO  =     38    algorithm
   LDIAG  =      T    sub-space diagonalisation (order eigenvalues)
   LSUBROT=      F    optimize rotation matrix (better conditioning)
   TURBO    =      0    0=normal 1=particle mesh
   IRESTART =      0    0=no restart 2=restart with 2 vectors
   NREBOOT  =      0    no. of reboots
   NMIN     =      0    reboot dimension
   EREF     =   0.00    reference energy to select bands
   IMIX   =      4    mixing-type and parameters
     AMIX     =   0.40;   BMIX     =  1.00
     AMIX_MAG =   1.60;   BMIX_MAG =  1.00
     AMIN     =   0.01
     WC   =   100.;   INIMIX=   1;  MIXPRE=   1;  MAXMIX= -45

 Intra band minimization:
   WEIMIN = 0.0010     energy-eigenvalue tresh-hold
   EBREAK =  0.40E-07  absolut break condition
   DEPER  =   0.30     relativ break condition  

   TIME   =   0.40     timestep for ELM

  volume/ion in A,a.u.               =      13.21        89.17
  Fermi-wavevector in a.u.,A,eV,Ry     =   1.066559  2.015504 15.477273  1.137547
  Thomas-Fermi vector in A             =   2.202147
 
 Write flags
   LWAVE  =      F    write WAVECAR
   LCHARG =      T    write CHGCAR
   LVTOT  =      F    write LOCPOT, total local potential
   LVHAR  =      F    write LOCPOT, Hartree potential only
   LELF   =      F    write electronic localiz. function (ELF)
   LORBIT =      0    0 simple, 1 ext, 2 COOP (PROOUT)


 Dipole corrections
   LMONO  =      F    monopole corrections only (constant potential shift)
   LDIPOL =      F    correct potential (dipole corrections)
   IDIPOL =      0    1-x, 2-y, 3-z, 4-all directions 
   EPSILON=  1.0000000 bulk dielectric constant

 Exchange correlation treatment:
   GGA     =    --    GGA type
   LEXCH   =     8    internal setting for exchange type
   VOSKOWN=      0    Vosko Wilk Nusair interpolation
   LHFCALC =     F    Hartree Fock is set to
   LHFONE  =     F    Hartree Fock one center treatment
   AEXX    =    0.0000 exact exchange contribution

 Linear response parameters
   LEPSILON=     F    determine dielectric tensor
   LRPA    =     F    only Hartree local field effects (RPA)
   LNABLA  =     F    use nabla operator in PAW spheres
   LVEL    =     F    velocity operator in full k-point grid
   LINTERFAST=   F  fast interpolation
   KINTER  =     0    interpolate to denser k-point grid
   CSHIFT  =0.1000    complex shift for real part using Kramers Kronig
   OMEGAMAX=  -1.0    maximum frequency
   DEG_THRESHOLD= 0.2000000E-02 threshold for treating states as degnerate
   RTIME   =    0.100 relaxation time in fs

 Orbital magnetization related:
   ORBITALMAG=     F  switch on orbital magnetization
   LCHIMAG   =     F  perturbation theory with respect to B field
   DQ        =  0.001000  dq finite difference perturbation B field



--------------------------------------------------------------------------------------------------------


 conjugate gradient relaxation of ions
   using selective dynamics as specified on POSCAR
 charge density and potential will be updated during run
 non-spin polarized calculation
 Variant of blocked Davidson
 Davidson routine will perform the subspace rotation
 perform sub-space diagonalisation
    after iterative eigenvector-optimisation
 modified Broyden-mixing scheme, WC =      100.0
 initial mixing is a Kerker type mixing with AMIX =  0.4000 and BMIX =      1.0000
 Hartree-type preconditioning will be used
 using additional bands           14
 reciprocal scheme for non local part
 use partial core corrections
 calculate Harris-corrections to forces 
   (improved forces if not selfconsistent)
 use gradient corrections 
 use of overlap-Matrix (Vanderbilt PP)
 Gauss-broadening in eV      SIGMA  =   0.05


--------------------------------------------------------------------------------------------------------


  energy-cutoff  :      520.00
  volume of cell :      343.55
      direct lattice vectors                 reciprocal lattice vectors
     2.591982046 -1.496481076  0.000000000     0.385805142 -0.000000000 -0.000000000
     0.000000000  2.992962152  0.000000000     0.192902571  0.334117155  0.000000000
     0.000000000 -0.000000000 44.285401460     0.000000000  0.000000000  0.022580805

  length of vectors
     2.992962836  2.992962152 44.285401460     0.385805142  0.385805230  0.022580805


 
 k-points in units of 2pi/SCALE and weight: K-Spacing Value to Generate K-Mesh: 0.02
   0.00000000  0.00000000  0.00000000       0.006
   0.02967732 -0.00000000 -0.00000000       0.036
   0.05935464 -0.00000000 -0.00000000       0.036
   0.08903196 -0.00000000 -0.00000000       0.036
   0.11870927 -0.00000000 -0.00000000       0.036
   0.14838659 -0.00000000 -0.00000000       0.036
   0.17806391 -0.00000000 -0.00000000       0.036
   0.04451598  0.02570132  0.00000000       0.036
   0.07419330  0.02570132  0.00000000       0.071
   0.10387062  0.02570132  0.00000000       0.071
   0.13354793  0.02570132  0.00000000       0.071
   0.16322525  0.02570132  0.00000000       0.071
   0.19290257  0.02570132  0.00000000       0.036
   0.08903196  0.05140264  0.00000000       0.036
   0.11870927  0.05140264  0.00000000       0.071
   0.14838659  0.05140264  0.00000000       0.071
   0.17806391  0.05140264  0.00000000       0.071
   0.13354793  0.07710396  0.00000000       0.036
   0.16322525  0.07710396  0.00000000       0.071
   0.19290257  0.07710396  0.00000000       0.036
   0.17806391  0.10280528  0.00000000       0.036
 
 k-points in reciprocal lattice and weights: K-Spacing Value to Generate K-Mesh: 0.02
   0.00000000  0.00000000  0.00000000       0.006
   0.07692308  0.00000000 -0.00000000       0.036
   0.15384615 -0.00000000 -0.00000000       0.036
   0.23076923  0.00000000 -0.00000000       0.036
   0.30769231  0.00000000 -0.00000000       0.036
   0.38461538  0.00000000 -0.00000000       0.036
   0.46153846  0.00000000 -0.00000000       0.036
   0.07692308  0.07692308 -0.00000000       0.036
   0.15384615  0.07692308  0.00000000       0.071
   0.23076923  0.07692308 -0.00000000       0.071
   0.30769231  0.07692308 -0.00000000       0.071
   0.38461538  0.07692308 -0.00000000       0.071
   0.46153846  0.07692308  0.00000000       0.036
   0.15384615  0.15384615  0.00000000       0.036
   0.23076923  0.15384615  0.00000000       0.071
   0.30769231  0.15384615  0.00000000       0.071
   0.38461538  0.15384615  0.00000000       0.071
   0.23076923  0.23076923  0.00000000       0.036
   0.30769231  0.23076923  0.00000000       0.071
   0.38461538  0.23076923  0.00000000       0.036
   0.30769231  0.30769231  0.00000000       0.036
 
 position of ions in fractional coordinates (direct lattice) 
   0.00000000  0.00000000  0.35328170
   0.33333300  0.66666700  0.41076217
   0.00000000  0.00000000  0.52579348
   0.33333300  0.66666700  0.58332642
   0.00000000  0.00000000  0.69830381
   0.33333300  0.66666700  0.75576893
   0.66666700  0.33333300  0.29580309
   0.66666700  0.33333300  0.46826360
   0.66666700  0.33333300  0.64081715
   0.00000000  0.00000000  0.26619982
   0.00000000  0.00000000  0.43950034
   0.00000000  0.00000000  0.61207715
   0.00000000  0.00000000  0.78538833
   0.66666700  0.33333300  0.38202406
   0.66666700  0.33333300  0.55454848
   0.66666700  0.33333300  0.72703147
   0.33333300  0.66666700  0.32454328
   0.33333300  0.66666700  0.49703002
   0.33333300  0.66666700  0.66956062
   0.00000000  0.00000000  0.02578180
   0.00000000  0.00000000  0.19461981
   0.66666700  0.33333300  0.13674768
   0.33333300  0.66666700  0.08108198
   0.00000000  0.00000000  0.85695653
   0.66666700  0.33333300  0.97048192
   0.33333300  0.66666700  0.91482135
 
 position of ions in cartesian coordinates  (Angst):
   0.00000000 -0.00000000 15.64522183
   0.86399315  1.49648257 18.19076739
   0.00000000 -0.00000000 23.28497537
   0.86399315  1.49648257 25.83284480
   0.00000000 -0.00000000 30.92466458
   0.86399315  1.49648257 33.46953053
   1.72798889 -0.00000150 13.09975881
   1.72798889 -0.00000150 20.73724144
   1.72798889 -0.00000150 28.37884464
   0.00000000 -0.00000000 11.78876573
   0.00000000 -0.00000000 19.46344907
   0.00000000 -0.00000000 27.10608239
   0.00000000 -0.00000000 34.78123742
   1.72798889 -0.00000150 16.91808887
   1.72798889 -0.00000150 24.55840202
   1.72798889 -0.00000150 32.19688054
   0.86399315  1.49648257 14.37252959
   0.86399315  1.49648257 22.01117413
   0.86399315  1.49648257 29.65176069
   0.00000000 -0.00000000  1.14175741
   0.00000000 -0.00000000  8.61881641
   1.72798889 -0.00000150  6.05592606
   0.86399315  1.49648257  3.59074807
   0.00000000 -0.00000000 37.95066405
   1.72798889 -0.00000150 42.97818147
   0.86399315  1.49648257 40.51323087
 


--------------------------------------------------------------------------------------------------------


 k-point  1 :   0.0000 0.0000 0.0000  plane waves:    9369
 k-point  2 :   0.0769 0.0000-0.0000  plane waves:    9371
 k-point  3 :   0.1538-0.0000-0.0000  plane waves:    9347
 k-point  4 :   0.2308 0.0000-0.0000  plane waves:    9304
 k-point  5 :   0.3077 0.0000-0.0000  plane waves:    9252
 k-point  6 :   0.3846 0.0000-0.0000  plane waves:    9202
 k-point  7 :   0.4615 0.0000-0.0000  plane waves:    9208
 k-point  8 :   0.0769 0.0769-0.0000  plane waves:    9351
 k-point  9 :   0.1538 0.0769 0.0000  plane waves:    9314
 k-point 10 :   0.2308 0.0769-0.0000  plane waves:    9273
 k-point 11 :   0.3077 0.0769-0.0000  plane waves:    9238
 k-point 12 :   0.3846 0.0769-0.0000  plane waves:    9208
 k-point 13 :   0.4615 0.0769 0.0000  plane waves:    9160
 k-point 14 :   0.1538 0.1538 0.0000  plane waves:    9287
 k-point 15 :   0.2308 0.1538 0.0000  plane waves:    9250
 k-point 16 :   0.3077 0.1538 0.0000  plane waves:    9236
 k-point 17 :   0.3846 0.1538 0.0000  plane waves:    9190
 k-point 18 :   0.2308 0.2308 0.0000  plane waves:    9252
 k-point 19 :   0.3077 0.2308 0.0000  plane waves:    9209
 k-point 20 :   0.3846 0.2308 0.0000  plane waves:    9218
 k-point 21 :   0.3077 0.3077 0.0000  plane waves:    9246

 maximum and minimum number of plane-waves per node :      2360     2263

 maximum number of plane-waves:      9371
 maximum index in each direction: 
   IXMAX=    5   IYMAX=    5   IZMAX=   82
   IXMIN=   -6   IYMIN=   -5   IZMIN=  -82

 NGX is ok and might be reduce to  24
 NGY is ok and might be reduce to  22
 NGZ is ok and might be reduce to 330

 parallel 3D FFT for wavefunctions:
    minimum data exchange during FFTs selected (reduces bandwidth)
 parallel 3D FFT for charge:
    minimum data exchange during FFTs selected (reduces bandwidth)


 total amount of memory used by VASP on root node   152989. kBytes
========================================================================

   base      :      30000. kBytes
   nonl-proj :      16444. kBytes
   fftplans  :      57934. kBytes
   grid      :      23224. kBytes
   one-center:         56. kBytes
   wavefun   :      25331. kBytes
 
     INWAV:  cpu time    0.00: real time    0.00
 Broyden mixing: mesh for mixing (old mesh)
   NGX = 11   NGY = 11   NGZ =165
  (NGX  = 48   NGY  = 48   NGZ  =672)
  gives a total of  19965 points

 initial charge density was supplied:
 charge density of overlapping atoms calculated
 number of electron      95.0000000 magnetization 
 keeping initial charge density in first step


--------------------------------------------------------------------------------------------------------


 Maximum index for augmentation-charges        23069 (set IRDMAX)


--------------------------------------------------------------------------------------------------------


 First call to EWALD:  gamma=   0.253
 Maximum number of real-space cells 7x 7x 1
 Maximum number of reciprocal cells 1x 1x15

 FEWALD executed in parallel
    FEWALD:  cpu time    0.00: real time    0.00


----------------------------------------- Iteration    1(   1)  ---------------------------------------


    POTLOK:  cpu time    0.11: real time    0.11
    SETDIJ:  cpu time    0.11: real time    0.11
     EDDAV:  cpu time    4.59: real time    4.61
       DOS:  cpu time    0.00: real time    0.00
    --------------------------------------------
      LOOP:  cpu time    4.81: real time    4.83

 eigenvalue-minimisations  :  2604
 total energy-change (2. order) : 0.4787546E+03  (-0.4093706E+04)
 number of electron      95.0000000 magnetization 
 augmentation part       95.0000000 magnetization 

 Free energy of the ion-electron system (eV)
  ---------------------------------------------------
  alpha Z        PSCENC =       117.69415766
  Ewald energy   TEWEN  =     17327.10314757
  -Hartree energ DENC   =    -22039.86622607
  -exchange      EXHF   =         0.00000000
  -V(xc)+E(xc)   XCENC  =      -420.49442597
  PAW double counting   =      4235.41334458    -3509.29226066
  entropy T*S    EENTRO =        -0.00448874
  eigenvalues    EBANDS =       271.84166445
  atomic energy  EATOM  =      4496.35971583
  ---------------------------------------------------
  free energy    TOTEN  =       478.75462865 eV

  energy without entropy =      478.75911738  energy(sigma->0) =      478.75687301


--------------------------------------------------------------------------------------------------------




----------------------------------------- Iteration    1(   2)  ---------------------------------------


     EDDAV:  cpu time    5.12: real time    5.13
       DOS:  cpu time    0.00: real time    0.00
    --------------------------------------------
      LOOP:  cpu time    5.12: real time    5.13

 eigenvalue-minimisations  :  3346
 total energy-change (2. order) :-0.5677474E+03  (-0.5377445E+03)
 number of electron      95.0000000 magnetization 
 augmentation part       95.0000000 magnetization 

 Free energy of the ion-electron system (eV)
  ---------------------------------------------------
  alpha Z        PSCENC =       117.69415766
  Ewald energy   TEWEN  =     17327.10314757
  -Hartree energ DENC   =    -22039.86622607
  -exchange      EXHF   =         0.00000000
  -V(xc)+E(xc)   XCENC  =      -420.49442597
  PAW double counting   =      4235.41334458    -3509.29226066
  entropy T*S    EENTRO =        -0.00272421
  eigenvalues    EBANDS =      -295.90751246
  atomic energy  EATOM  =      4496.35971583
  ---------------------------------------------------
  free energy    TOTEN  =       -88.99278375 eV

  energy without entropy =      -88.99005953  energy(sigma->0) =      -88.99142164


--------------------------------------------------------------------------------------------------------




----------------------------------------- Iteration    1(   3)  ---------------------------------------


     EDDAV:  cpu time    4.76: real time    4.77
       DOS:  cpu time    0.00: real time    0.00
    --------------------------------------------
      LOOP:  cpu time    4.76: real time    4.77

 eigenvalue-minimisations  :  3026
 total energy-change (2. order) :-0.5776052E+02  (-0.5741496E+02)
 number of electron      95.0000000 magnetization 
 augmentation part       95.0000000 magnetization 

 Free energy of the ion-electron system (eV)
  ---------------------------------------------------
  alpha Z        PSCENC =       117.69415766
  Ewald energy   TEWEN  =     17327.10314757
  -Hartree energ DENC   =    -22039.86622607
  -exchange      EXHF   =         0.00000000
  -V(xc)+E(xc)   XCENC  =      -420.49442597
  PAW double counting   =      4235.41334458    -3509.29226066
  entropy T*S    EENTRO =        -0.00642426
  eigenvalues    EBANDS =      -353.66433572
  atomic energy  EATOM  =      4496.35971583
  ---------------------------------------------------
  free energy    TOTEN  =      -146.75330705 eV

  energy without entropy =     -146.74688279  energy(sigma->0) =     -146.75009492


--------------------------------------------------------------------------------------------------------




----------------------------------------- Iteration    1(   4)  ---------------------------------------


     EDDAV:  cpu time    4.78: real time    4.78
       DOS:  cpu time    0.00: real time    0.00
    --------------------------------------------
      LOOP:  cpu time    4.78: real time    4.78

 eigenvalue-minimisations  :  3050
 total energy-change (2. order) :-0.8135084E+00  (-0.8114047E+00)
 number of electron      95.0000000 magnetization 
 augmentation part       95.0000000 magnetization 

 Free energy of the ion-electron system (eV)
  ---------------------------------------------------
  alpha Z        PSCENC =       117.69415766
  Ewald energy   TEWEN  =     17327.10314757
  -Hartree energ DENC   =    -22039.86622607
  -exchange      EXHF   =         0.00000000
  -V(xc)+E(xc)   XCENC  =      -420.49442597
  PAW double counting   =      4235.41334458    -3509.29226066
  entropy T*S    EENTRO =        -0.00725066
  eigenvalues    EBANDS =      -354.47701775
  atomic energy  EATOM  =      4496.35971583
  ---------------------------------------------------
  free energy    TOTEN  =      -147.56681547 eV

  energy without entropy =     -147.55956481  energy(sigma->0) =     -147.56319014


--------------------------------------------------------------------------------------------------------




----------------------------------------- Iteration    1(   5)  ---------------------------------------


     EDDAV:  cpu time    4.82: real time    4.83
       DOS:  cpu time    0.00: real time    0.00
    CHARGE:  cpu time    0.39: real time    0.39
    MIXING:  cpu time    0.00: real time    0.00
    --------------------------------------------
      LOOP:  cpu time    5.22: real time    5.23

 eigenvalue-minimisations  :  3110
 total energy-change (2. order) :-0.1387889E-01  (-0.1387206E-01)
 number of electron      95.0000001 magnetization 
 augmentation part        6.8977899 magnetization 

 Broyden mixing:
  rms(total) = 0.21968E+01    rms(broyden)= 0.21964E+01
  rms(prec ) = 0.22554E+01
  weight for this iteration     100.00

 Free energy of the ion-electron system (eV)
  ---------------------------------------------------
  alpha Z        PSCENC =       117.69415766
  Ewald energy   TEWEN  =     17327.10314757
  -Hartree energ DENC   =    -22039.86622607
  -exchange      EXHF   =         0.00000000
  -V(xc)+E(xc)   XCENC  =      -420.49442597
  PAW double counting   =      4235.41334458    -3509.29226066
  entropy T*S    EENTRO =        -0.00728708
  eigenvalues    EBANDS =      -354.49086022
  atomic energy  EATOM  =      4496.35971583
  ---------------------------------------------------
  free energy    TOTEN  =      -147.58069437 eV

  energy without entropy =     -147.57340729  energy(sigma->0) =     -147.57705083


--------------------------------------------------------------------------------------------------------




----------------------------------------- Iteration    1(   6)  ---------------------------------------


    POTLOK:  cpu time    0.11: real time    0.11
    SETDIJ:  cpu time    0.11: real time    0.12
     EDDAV:  cpu time    4.69: real time    4.69
       DOS:  cpu time    0.00: real time    0.00
    CHARGE:  cpu time    0.38: real time    0.38
    MIXING:  cpu time    0.00: real time    0.00
    --------------------------------------------
      LOOP:  cpu time    5.30: real time    5.30

 eigenvalue-minimisations  :  2962
 total energy-change (2. order) : 0.1483353E+02  (-0.8499157E+01)
 number of electron      95.0000001 magnetization 
 augmentation part        5.5537433 magnetization 

 Broyden mixing:
  rms(total) = 0.75193E+00    rms(broyden)= 0.75104E+00
  rms(prec ) = 0.75904E+00
  weight for this iteration     100.00

 eigenvalues of (default mixing * dielectric matrix)
  average eigenvalue GAMMA=   0.8327
  0.8327

 Free energy of the ion-electron system (eV)
  ---------------------------------------------------
  alpha Z        PSCENC =       117.69415766
  Ewald energy   TEWEN  =     17327.10314757
  -Hartree energ DENC   =    -22214.98080916
  -exchange      EXHF   =         0.00000000
  -V(xc)+E(xc)   XCENC  =      -408.30068544
  PAW double counting   =      4995.49494431    -4272.45613304
  entropy T*S    EENTRO =        -0.00689120
  eigenvalues    EBANDS =      -173.65460659
  atomic energy  EATOM  =      4496.35971583
  ---------------------------------------------------
  free energy    TOTEN  =      -132.74716006 eV

  energy without entropy =     -132.74026885  energy(sigma->0) =     -132.74371446


--------------------------------------------------------------------------------------------------------




----------------------------------------- Iteration    1(   7)  ---------------------------------------


    POTLOK:  cpu time    0.11: real time    0.11
    SETDIJ:  cpu time    0.11: real time    0.11
     EDDAV:  cpu time    4.26: real time    4.26
       DOS:  cpu time    0.00: real time    0.00
    CHARGE:  cpu time    0.37: real time    0.37
    MIXING:  cpu time    0.01: real time    0.01
    --------------------------------------------
      LOOP:  cpu time    4.85: real time    4.85

 eigenvalue-minimisations  :  2870
 total energy-change (2. order) : 0.1498601E+00  (-0.1691607E+00)
 number of electron      95.0000001 magnetization 
 augmentation part        5.6061577 magnetization 

 Broyden mixing:
  rms(total) = 0.45269E+00    rms(broyden)= 0.45268E+00
  rms(prec ) = 0.45728E+00
  weight for this iteration     100.00

 eigenvalues of (default mixing * dielectric matrix)
  average eigenvalue GAMMA=   1.6461
  0.9645  2.3278

 Free energy of the ion-electron system (eV)
  ---------------------------------------------------
  alpha Z        PSCENC =       117.69415766
  Ewald energy   TEWEN  =     17327.10314757
  -Hartree energ DENC   =    -22211.75706412
  -exchange      EXHF   =         0.00000000
  -V(xc)+E(xc)   XCENC  =      -408.06203214
  PAW double counting   =      5243.59036453    -4520.08821971
  entropy T*S    EENTRO =        -0.00608910
  eigenvalues    EBANDS =      -177.43128052
  atomic energy  EATOM  =      4496.35971583
  ---------------------------------------------------
  free energy    TOTEN  =      -132.59730000 eV

  energy without entropy =     -132.59121090  energy(sigma->0) =     -132.59425545


--------------------------------------------------------------------------------------------------------




----------------------------------------- Iteration    1(   8)  ---------------------------------------


    POTLOK:  cpu time    0.10: real time    0.10
    SETDIJ:  cpu time    0.10: real time    0.10
     EDDAV:  cpu time    4.57: real time    4.58
       DOS:  cpu time    0.00: real time    0.00
    CHARGE:  cpu time    0.37: real time    0.38
    MIXING:  cpu time    0.01: real time    0.01
    --------------------------------------------
      LOOP:  cpu time    5.16: real time    5.16

 eigenvalue-minimisations  :  3036
 total energy-change (2. order) : 0.8941076E-01  (-0.4905050E-01)
 number of electron      95.0000001 magnetization 
 augmentation part        5.6502703 magnetization 

 Broyden mixing:
  rms(total) = 0.80347E-01    rms(broyden)= 0.80308E-01
  rms(prec ) = 0.10451E+00
  weight for this iteration     100.00

 eigenvalues of (default mixing * dielectric matrix)
  average eigenvalue GAMMA=   1.3728
  2.4326  0.9108  0.7749

 Free energy of the ion-electron system (eV)
  ---------------------------------------------------
  alpha Z        PSCENC =       117.69415766
  Ewald energy   TEWEN  =     17327.10314757
  -Hartree energ DENC   =    -22217.78043496
  -exchange      EXHF   =         0.00000000
  -V(xc)+E(xc)   XCENC  =      -406.69265466
  PAW double counting   =      5685.61566171    -4961.78448020
  entropy T*S    EENTRO =        -0.00604791
  eigenvalues    EBANDS =      -173.01695429
  atomic energy  EATOM  =      4496.35971583
  ---------------------------------------------------
  free energy    TOTEN  =      -132.50788924 eV

  energy without entropy =     -132.50184133  energy(sigma->0) =     -132.50486529


--------------------------------------------------------------------------------------------------------




----------------------------------------- Iteration    1(   9)  ---------------------------------------


    POTLOK:  cpu time    0.10: real time    0.10
    SETDIJ:  cpu time    0.10: real time    0.10
     EDDAV:  cpu time    4.69: real time    4.69
       DOS:  cpu time    0.00: real time    0.00
    CHARGE:  cpu time    0.38: real time    0.38
    MIXING:  cpu time    0.00: real time    0.00
    --------------------------------------------
      LOOP:  cpu time    5.28: real time    5.28

 eigenvalue-minimisations  :  2968
 total energy-change (2. order) : 0.2630501E-01  (-0.9715210E-02)
 number of electron      95.0000001 magnetization 
 augmentation part        5.6322613 magnetization 

 Broyden mixing:
  rms(total) = 0.42988E-01    rms(broyden)= 0.42987E-01
  rms(prec ) = 0.43858E-01
  weight for this iteration     100.00

 eigenvalues of (default mixing * dielectric matrix)
  average eigenvalue GAMMA=   1.4377
  2.5185  1.4727  0.9264  0.8332

 Free energy of the ion-electron system (eV)
  ---------------------------------------------------
  alpha Z        PSCENC =       117.69415766
  Ewald energy   TEWEN  =     17327.10314757
  -Hartree energ DENC   =    -22221.32672351
  -exchange      EXHF   =         0.00000000
  -V(xc)+E(xc)   XCENC  =      -406.36386362
  PAW double counting   =      5708.90403962    -4985.10359670
  entropy T*S    EENTRO =        -0.00643064
  eigenvalues    EBANDS =      -169.74203045
  atomic energy  EATOM  =      4496.35971583
  ---------------------------------------------------
  free energy    TOTEN  =      -132.48158423 eV

  energy without entropy =     -132.47515360  energy(sigma->0) =     -132.47836891


--------------------------------------------------------------------------------------------------------




----------------------------------------- Iteration    1(  10)  ---------------------------------------


    POTLOK:  cpu time    0.10: real time    0.10
    SETDIJ:  cpu time    0.10: real time    0.10
     EDDAV:  cpu time    4.62: real time    4.62
       DOS:  cpu time    0.00: real time    0.00
    CHARGE:  cpu time    0.38: real time    0.38
    MIXING:  cpu time    0.01: real time    0.01
    --------------------------------------------
      LOOP:  cpu time    5.21: real time    5.21

 eigenvalue-minimisations  :  2900
 total energy-change (2. order) :-0.9717060E-03  (-0.3737742E-02)
 number of electron      95.0000001 magnetization 
 augmentation part        5.6133248 magnetization 

 Broyden mixing:
  rms(total) = 0.26628E-01    rms(broyden)= 0.26614E-01
  rms(prec ) = 0.26935E-01
  weight for this iteration     100.00

 eigenvalues of (default mixing * dielectric matrix)
  average eigenvalue GAMMA=   1.2485
  2.5040  1.5491  0.8778  0.8778  0.4340

 Free energy of the ion-electron system (eV)
  ---------------------------------------------------
  alpha Z        PSCENC =       117.69415766
  Ewald energy   TEWEN  =     17327.10314757
  -Hartree energ DENC   =    -22223.48478887
  -exchange      EXHF   =         0.00000000
  -V(xc)+E(xc)   XCENC  =      -406.15724918
  PAW double counting   =      5696.71995710    -4972.95572162
  entropy T*S    EENTRO =        -0.00648407
  eigenvalues    EBANDS =      -167.75529036
  atomic energy  EATOM  =      4496.35971583
  ---------------------------------------------------
  free energy    TOTEN  =      -132.48255594 eV

  energy without entropy =     -132.47607187  energy(sigma->0) =     -132.47931390


--------------------------------------------------------------------------------------------------------




----------------------------------------- Iteration    1(  11)  ---------------------------------------


    POTLOK:  cpu time    0.11: real time    0.11
    SETDIJ:  cpu time    0.10: real time    0.10
     EDDAV:  cpu time    4.84: real time    4.84
       DOS:  cpu time    0.00: real time    0.00
    CHARGE:  cpu time    0.38: real time    0.38
    MIXING:  cpu time    0.00: real time    0.00
    --------------------------------------------
      LOOP:  cpu time    5.43: real time    5.44

 eigenvalue-minimisations  :  3090
 total energy-change (2. order) : 0.4329031E-04  (-0.2392481E-03)
 number of electron      95.0000001 magnetization 
 augmentation part        5.6173992 magnetization 

 Broyden mixing:
  rms(total) = 0.16166E-01    rms(broyden)= 0.16165E-01
  rms(prec ) = 0.16304E-01
  weight for this iteration     100.00

 eigenvalues of (default mixing * dielectric matrix)
  average eigenvalue GAMMA=   1.4489
  2.8715  2.3668  0.9865  0.9065  0.9065  0.6559

 Free energy of the ion-electron system (eV)
  ---------------------------------------------------
  alpha Z        PSCENC =       117.69415766
  Ewald energy   TEWEN  =     17327.10314757
  -Hartree energ DENC   =    -22223.08569036
  -exchange      EXHF   =         0.00000000
  -V(xc)+E(xc)   XCENC  =      -406.16411978
  PAW double counting   =      5679.01324885    -4955.24798456
  entropy T*S    EENTRO =        -0.00648276
  eigenvalues    EBANDS =      -168.14850510
  atomic energy  EATOM  =      4496.35971583
  ---------------------------------------------------
  free energy    TOTEN  =      -132.48251265 eV

  energy without entropy =     -132.47602989  energy(sigma->0) =     -132.47927127


--------------------------------------------------------------------------------------------------------




----------------------------------------- Iteration    1(  12)  ---------------------------------------


    POTLOK:  cpu time    0.11: real time    0.11
    SETDIJ:  cpu time    0.11: real time    0.11
     EDDAV:  cpu time    5.30: real time    5.30
       DOS:  cpu time    0.00: real time    0.00
    CHARGE:  cpu time    0.37: real time    0.37
    MIXING:  cpu time    0.01: real time    0.01
    --------------------------------------------
      LOOP:  cpu time    5.90: real time    5.90

 eigenvalue-minimisations  :  3474
 total energy-change (2. order) :-0.3672555E-03  (-0.2454633E-03)
 number of electron      95.0000001 magnetization 
 augmentation part        5.6174394 magnetization 

 Broyden mixing:
  rms(total) = 0.53718E-02    rms(broyden)= 0.53669E-02
  rms(prec ) = 0.55167E-02
  weight for this iteration     100.00

 eigenvalues of (default mixing * dielectric matrix)
  average eigenvalue GAMMA=   1.3895
  2.9265  2.4973  0.9460  0.9460  0.8957  0.8957  0.6191

 Free energy of the ion-electron system (eV)
  ---------------------------------------------------
  alpha Z        PSCENC =       117.69415766
  Ewald energy   TEWEN  =     17327.10314757
  -Hartree energ DENC   =    -22223.29777353
  -exchange      EXHF   =         0.00000000
  -V(xc)+E(xc)   XCENC  =      -406.11516240
  PAW double counting   =      5648.19076718    -4924.44233063
  entropy T*S    EENTRO =        -0.00647687
  eigenvalues    EBANDS =      -167.96892471
  atomic energy  EATOM  =      4496.35971583
  ---------------------------------------------------
  free energy    TOTEN  =      -132.48287990 eV

  energy without entropy =     -132.47640303  energy(sigma->0) =     -132.47964147


--------------------------------------------------------------------------------------------------------




----------------------------------------- Iteration    1(  13)  ---------------------------------------


    POTLOK:  cpu time    0.10: real time    0.10
    SETDIJ:  cpu time    0.11: real time    0.11
     EDDAV:  cpu time    4.84: real time    4.84
       DOS:  cpu time    0.00: real time    0.00
    CHARGE:  cpu time    0.39: real time    0.39
    MIXING:  cpu time    0.01: real time    0.01
    --------------------------------------------
      LOOP:  cpu time    5.45: real time    5.45

 eigenvalue-minimisations  :  3042
 total energy-change (2. order) : 0.2878034E-04  (-0.5682290E-04)
 number of electron      95.0000001 magnetization 
 augmentation part        5.6185442 magnetization 

 Broyden mixing:
  rms(total) = 0.35250E-02    rms(broyden)= 0.35245E-02
  rms(prec ) = 0.36551E-02
  weight for this iteration     100.00

 eigenvalues of (default mixing * dielectric matrix)
  average eigenvalue GAMMA=   1.3535
  2.8863  2.5636  0.9857  0.9857  1.0411  1.0411  0.6624  0.6624

 Free energy of the ion-electron system (eV)
  ---------------------------------------------------
  alpha Z        PSCENC =       117.69415766
  Ewald energy   TEWEN  =     17327.10314757
  -Hartree energ DENC   =    -22223.14601751
  -exchange      EXHF   =         0.00000000
  -V(xc)+E(xc)   XCENC  =      -406.12652643
  PAW double counting   =      5643.87401323    -4920.12415568
  entropy T*S    EENTRO =        -0.00647078
  eigenvalues    EBANDS =      -168.11071501
  atomic energy  EATOM  =      4496.35971583
  ---------------------------------------------------
  free energy    TOTEN  =      -132.48285112 eV

  energy without entropy =     -132.47638034  energy(sigma->0) =     -132.47961573


--------------------------------------------------------------------------------------------------------




----------------------------------------- Iteration    1(  14)  ---------------------------------------


    POTLOK:  cpu time    0.11: real time    0.11
    SETDIJ:  cpu time    0.10: real time    0.10
     EDDAV:  cpu time    4.60: real time    4.60
       DOS:  cpu time    0.00: real time    0.00
    CHARGE:  cpu time    0.37: real time    0.38
    MIXING:  cpu time    0.01: real time    0.01
    --------------------------------------------
      LOOP:  cpu time    5.19: real time    5.19

 eigenvalue-minimisations  :  2908
 total energy-change (2. order) : 0.1704031E-04  (-0.2032017E-04)
 number of electron      95.0000001 magnetization 
 augmentation part        5.6186998 magnetization 

 Broyden mixing:
  rms(total) = 0.12611E-02    rms(broyden)= 0.12590E-02
  rms(prec ) = 0.14672E-02
  weight for this iteration     100.00

 eigenvalues of (default mixing * dielectric matrix)
  average eigenvalue GAMMA=   1.3522
  2.8415  2.3773  1.6311  0.9153  0.9153  0.6324  0.9959  0.9959  0.8650

 Free energy of the ion-electron system (eV)
  ---------------------------------------------------
  alpha Z        PSCENC =       117.69415766
  Ewald energy   TEWEN  =     17327.10314757
  -Hartree energ DENC   =    -22223.13074562
  -exchange      EXHF   =         0.00000000
  -V(xc)+E(xc)   XCENC  =      -406.12970792
  PAW double counting   =      5643.55747846    -4919.80643454
  entropy T*S    EENTRO =        -0.00647250
  eigenvalues    EBANDS =      -168.12397301
  atomic energy  EATOM  =      4496.35971583
  ---------------------------------------------------
  free energy    TOTEN  =      -132.48283408 eV

  energy without entropy =     -132.47636158  energy(sigma->0) =     -132.47959783


--------------------------------------------------------------------------------------------------------




----------------------------------------- Iteration    1(  15)  ---------------------------------------


    POTLOK:  cpu time    0.10: real time    0.10
    SETDIJ:  cpu time    0.10: real time    0.10
     EDDAV:  cpu time    3.87: real time    3.88
       DOS:  cpu time    0.00: real time    0.00
    CHARGE:  cpu time    0.37: real time    0.37
    MIXING:  cpu time    0.01: real time    0.01
    --------------------------------------------
      LOOP:  cpu time    4.46: real time    4.46

 eigenvalue-minimisations  :  2256
 total energy-change (2. order) : 0.1033718E-04  (-0.2386220E-05)
 number of electron      95.0000001 magnetization 
 augmentation part        5.6182800 magnetization 

 Broyden mixing:
  rms(total) = 0.57751E-03    rms(broyden)= 0.57731E-03
  rms(prec ) = 0.90825E-03
  weight for this iteration     100.00

 eigenvalues of (default mixing * dielectric matrix)
  average eigenvalue GAMMA=   1.3895
  2.8753  2.4123  2.4123  0.9303  0.9303  1.0028  1.0028  0.6385  0.8449  0.8449

 Free energy of the ion-electron system (eV)
  ---------------------------------------------------
  alpha Z        PSCENC =       117.69415766
  Ewald energy   TEWEN  =     17327.10314757
  -Hartree energ DENC   =    -22223.23499289
  -exchange      EXHF   =         0.00000000
  -V(xc)+E(xc)   XCENC  =      -406.12496627
  PAW double counting   =      5645.05733709    -4921.30645595
  entropy T*S    EENTRO =        -0.00647811
  eigenvalues    EBANDS =      -168.02428868
  atomic energy  EATOM  =      4496.35971583
  ---------------------------------------------------
  free energy    TOTEN  =      -132.48282375 eV

  energy without entropy =     -132.47634563  energy(sigma->0) =     -132.47958469


--------------------------------------------------------------------------------------------------------




----------------------------------------- Iteration    1(  16)  ---------------------------------------


    POTLOK:  cpu time    0.10: real time    0.10
    SETDIJ:  cpu time    0.10: real time    0.10
     EDDAV:  cpu time    3.31: real time    3.32
       DOS:  cpu time    0.00: real time    0.00
    --------------------------------------------
      LOOP:  cpu time    3.53: real time    3.53

 eigenvalue-minimisations  :  1770
 total energy-change (2. order) : 0.5131144E-05  (-0.2988955E-06)
 number of electron      95.0000001 magnetization 
 augmentation part        5.6182800 magnetization 

 Free energy of the ion-electron system (eV)
  ---------------------------------------------------
  alpha Z        PSCENC =       117.69415766
  Ewald energy   TEWEN  =     17327.10314757
  -Hartree energ DENC   =    -22223.27637542
  -exchange      EXHF   =         0.00000000
  -V(xc)+E(xc)   XCENC  =      -406.12449186
  PAW double counting   =      5644.79144546    -4921.04060976
  entropy T*S    EENTRO =        -0.00647721
  eigenvalues    EBANDS =      -167.98333088
  atomic energy  EATOM  =      4496.35971583
  ---------------------------------------------------
  free energy    TOTEN  =      -132.48281861 eV

  energy without entropy =     -132.47634140  energy(sigma->0) =     -132.47958001


--------------------------------------------------------------------------------------------------------




 average (electrostatic) potential at core
  the test charge radii are     0.7215  1.0714  1.0406
  (the norm of the test charge is              1.0000)
       1 -70.4022       2 -70.4054       3 -70.4132       4 -70.4038       5 -70.3988
       6 -70.4989       7 -70.5042       8 -70.4076       9 -70.3994      10 -36.3525
      11 -36.0836      12 -36.0776      13 -36.3511      14 -36.0769      15 -36.0894
      16 -36.0875      17 -36.0931      18 -36.0909      19 -36.0731      20 -74.8308
      21 -74.8896      22 -74.8286      23 -74.7730      24 -74.8892      25 -74.7728
      26 -74.8282
 
 
 
 E-fermi :   5.9746     XC(G=0): -10.0829     alpha+bet :-11.9400


 k-point     1 :       0.0000    0.0000    0.0000
  band No.  band energies     occupation 
      1     -14.6226      2.00000
      2     -14.5594      2.00000
      3     -14.4609      2.00000
      4     -14.3262      2.00000
      5     -14.1699      2.00000
      6     -13.9999      2.00000
      7     -13.8401      2.00000
      8     -13.7033      2.00000
      9     -13.6164      2.00000
     10      -4.0226      2.00000
     11      -3.6295      2.00000
     12      -3.1030      2.00000
     13      -2.4378      2.00000
     14      -2.1269      2.00000
     15      -1.9764      2.00000
     16      -1.6480      2.00000
     17      -1.6187      2.00000
     18      -1.1631      2.00000
     19      -0.7937      2.00000
     20      -0.4111      2.00000
     21      -0.0699      2.00000
     22       0.6529      2.00000
     23       0.7178      2.00000
     24       1.3774      2.00000
     25       1.8227      2.00000
     26       1.9337      2.00000
     27       1.9337      2.00000
     28       1.9675      2.00000
     29       1.9675      2.00000
     30       2.0177      2.00000
     31       2.0177      2.00000
     32       2.0874      2.00000
     33       2.0874      2.00000
     34       2.1656      2.00000
     35       2.1656      2.00000
     36       2.1798      2.00000
     37       2.2514      2.00000
     38       2.2514      2.00000
     39       2.3288      2.00000
     40       2.3288      2.00000
     41       2.3952      2.00000
     42       2.3952      2.00000
     43       2.4353      2.00000
     44       2.4353      2.00000
     45       3.0281      2.00000
     46       3.9347      2.00000
     47       5.0656      2.00000
     48       6.3309      0.00000
     49       6.7096      0.00000
     50       7.3588      0.00000
     51       7.5358      0.00000
     52       8.3418      0.00000
     53       8.5053      0.00000
     54       9.3378      0.00000
     55       9.3480      0.00000
     56       9.9502      0.00000
     57       9.9639      0.00000
     58      10.1441      0.00000
     59      10.8176      0.00000
     60      12.2949      0.00000
     61      13.8313      0.00000
     62      13.8357      0.00000

 k-point     2 :       0.0769    0.0000   -0.0000
  band No.  band energies     occupation 
      1     -14.5703      2.00000
      2     -14.5085      2.00000
      3     -14.4125      2.00000
      4     -14.2812      2.00000
      5     -14.1289      2.00000
      6     -13.9633      2.00000
      7     -13.8080      2.00000
      8     -13.6751      2.00000
      9     -13.5910      2.00000
     10      -3.8923      2.00000
     11      -3.4995      2.00000
     12      -2.9734      2.00000
     13      -2.3100      2.00000
     14      -2.0451      2.00000
     15      -1.8954      2.00000
     16      -1.5801      2.00000
     17      -1.5038      2.00000
     18      -1.1064      2.00000
     19      -0.7355      2.00000
     20      -0.3248      2.00000
     21      -0.0674      2.00000
     22       0.6084      2.00000
     23       0.8039      2.00000
     24       1.2935      2.00000
     25       1.6860      2.00000
     26       1.7043      2.00000
     27       1.7428      2.00000
     28       1.8052      2.00000
     29       1.8825      2.00000
     30       1.8898      2.00000
     31       1.9239      2.00000
     32       1.9737      2.00000
     33       1.9746      2.00000
     34       2.0392      2.00000
     35       2.0448      2.00000
     36       2.0998      2.00000
     37       2.1237      2.00000
     38       2.1562      2.00000
     39       2.1958      2.00000
     40       2.2103      2.00000
     41       2.2757      2.00000
     42       2.2884      2.00000
     43       2.3554      2.00000
     44       2.3960      2.00000
     45       3.1586      2.00000
     46       4.0721      2.00000
     47       5.2156      2.00000
     48       6.5086      0.00000
     49       7.0388      0.00000
     50       7.6107      0.00000
     51       7.7519      0.00000
     52       8.5251      0.00000
     53       8.7200      0.00000
     54       9.5491      0.00000
     55       9.5553      0.00000
     56      10.2035      0.00000
     57      10.2071      0.00000
     58      10.4210      0.00000
     59      10.9644      0.00000
     60      12.3507      0.00000
     61      13.6850      0.00000
     62      13.7774      0.00000

 k-point     3 :       0.1538   -0.0000   -0.0000
  band No.  band energies     occupation 
      1     -14.4203      2.00000
      2     -14.3631      2.00000
      3     -14.2745      2.00000
      4     -14.1531      2.00000
      5     -14.0129      2.00000
      6     -13.8605      2.00000
      7     -13.7182      2.00000
      8     -13.5967      2.00000
      9     -13.5204      2.00000
     10      -3.5022      2.00000
     11      -3.1101      2.00000
     12      -2.5853      2.00000
     13      -1.9319      2.00000
     14      -1.8053      2.00000
     15      -1.6687      2.00000
     16      -1.3926      2.00000
     17      -1.1891      2.00000
     18      -0.9293      2.00000
     19      -0.6397      2.00000
     20      -0.1229      2.00000
     21      -0.0439      2.00000
     22       0.4089      2.00000
     23       0.7342      2.00000
     24       1.0616      2.00000
     25       1.1196      2.00000
     26       1.1728      2.00000
     27       1.2019      2.00000
     28       1.3013      2.00000
     29       1.3081      2.00000
     30       1.4709      2.00000
     31       1.6075      2.00000
     32       1.7653      2.00000
     33       1.7714      2.00000
     34       1.8061      2.00000
     35       1.8579      2.00000
     36       1.8903      2.00000
     37       1.9296      2.00000
     38       1.9873      2.00000
     39       2.0103      2.00000
     40       2.0987      2.00000
     41       2.1785      2.00000
     42       2.2470      2.00000
     43       2.2885      2.00000
     44       2.5669      2.00000
     45       3.4889      2.00000
     46       4.4263      2.00000
     47       5.5990      2.00000
     48       6.9387      0.00000
     49       7.8018      0.00000
     50       8.2241      0.00000
     51       8.2917      0.00000
     52       8.9866      0.00000
     53       9.2530      0.00000
     54      10.0324      0.00000
     55      10.0670      0.00000
     56      10.7778      0.00000
     57      10.8136      0.00000
     58      11.1080      0.00000
     59      11.1587      0.00000
     60      11.3301      0.00000
     61      11.5938      0.00000
     62      11.8769      0.00000

 k-point     4 :       0.2308    0.0000   -0.0000
  band No.  band energies     occupation 
      1     -14.1943      2.00000
      2     -14.1446      2.00000
      3     -14.0684      2.00000
      4     -13.9634      2.00000
      5     -13.8426      2.00000
      6     -13.7115      2.00000
      7     -13.5901      2.00000
      8     -13.4866      2.00000
      9     -13.4223      2.00000
     10      -2.8542      2.00000
     11      -2.4633      2.00000
     12      -1.9413      2.00000
     13      -1.4661      2.00000
     14      -1.3524      2.00000
     15      -1.2954      2.00000
     16      -1.1376      2.00000
     17      -0.9532      2.00000
     18      -0.6784      2.00000
     19      -0.5267      2.00000
     20      -0.3301      2.00000
     21      -0.1508      2.00000
     22       0.0685      2.00000
     23       0.2480      2.00000
     24       0.3521      2.00000
     25       0.4031      2.00000
     26       0.5638      2.00000
     27       0.6204      2.00000
     28       0.8192      2.00000
     29       1.0475      2.00000
     30       1.3077      2.00000
     31       1.5332      2.00000
     32       1.6119      2.00000
     33       1.6474      2.00000
     34       1.6932      2.00000
     35       1.7003      2.00000
     36       1.7737      2.00000
     37       1.8361      2.00000
     38       1.8561      2.00000
     39       1.8906      2.00000
     40       1.9466      2.00000
     41       2.0284      2.00000
     42       2.0985      2.00000
     43       2.1411      2.00000
     44       3.1045      2.00000
     45       4.0219      2.00000
     46       4.9698      2.00000
     47       6.1613      0.00000
     48       7.4952      0.00000
     49       8.4790      0.00000
     50       8.7154      0.00000
     51       8.9161      0.00000
     52       8.9280      0.00000
     53       9.1545      0.00000
     54       9.4537      0.00000
     55       9.5375      0.00000
     56       9.9342      0.00000
     57      10.0797      0.00000
     58      10.5279      0.00000
     59      10.7501      0.00000
     60      10.8325      0.00000
     61      11.3938      0.00000
     62      11.5509      0.00000

 k-point     5 :       0.3077    0.0000   -0.0000
  band No.  band energies     occupation 
      1     -13.9286      2.00000
      2     -13.8894      2.00000
      3     -13.8300      2.00000
      4     -13.7471      2.00000
      5     -13.6524      2.00000
      6     -13.5492      2.00000
      7     -13.4549      2.00000
      8     -13.3743      2.00000
      9     -13.3254      2.00000
     10      -1.9515      2.00000
     11      -1.5627      2.00000
     12      -1.1952      2.00000
     13      -1.1216      2.00000
     14      -1.0936      2.00000
     15      -1.0521      2.00000
     16      -1.0240      2.00000
     17      -0.9549      2.00000
     18      -0.8563      2.00000
     19      -0.6902      2.00000
     20      -0.5956      2.00000
     21      -0.4672      2.00000
     22      -0.4132      2.00000
     23      -0.3382      2.00000
     24      -0.1269      2.00000
     25       0.1722      2.00000
     26       0.4723      2.00000
     27       0.5742      2.00000
     28       0.9055      2.00000
     29       1.1887      2.00000
     30       1.3586      2.00000
     31       1.4510      2.00000
     32       1.4860      2.00000
     33       1.4871      2.00000
     34       1.5409      2.00000
     35       1.5720      2.00000
     36       1.6154      2.00000
     37       1.6994      2.00000
     38       1.7164      2.00000
     39       1.7913      2.00000
     40       1.8746      2.00000
     41       1.9461      2.00000
     42       1.9896      2.00000
     43       2.6833      2.00000
     44       3.8769      2.00000
     45       4.7601      2.00000
     46       5.6538      2.00000
     47       6.1805      0.00000
     48       6.6186      0.00000
     49       7.0676      0.00000
     50       7.1417      0.00000
     51       7.7667      0.00000
     52       8.3254      0.00000
     53       8.5386      0.00000
     54       9.3700      0.00000
     55       9.4595      0.00000
     56       9.5867      0.00000
     57       9.8560      0.00000
     58      10.0820      0.00000
     59      10.5286      0.00000
     60      10.6451      0.00000
     61      10.8541      0.00000
     62      11.3207      0.00000

 k-point     6 :       0.3846    0.0000   -0.0000
  band No.  band energies     occupation 
      1     -13.6726      2.00000
      2     -13.6464      2.00000
      3     -13.6077      2.00000
      4     -13.5510      2.00000
      5     -13.4865      2.00000
      6     -13.4152      2.00000
      7     -13.3511      2.00000
      8     -13.2958      2.00000
      9     -13.2633      2.00000
     10      -1.6037      2.00000
     11      -1.5003      2.00000
     12      -1.3448      2.00000
     13      -1.3188      2.00000
     14      -1.2209      2.00000
     15      -1.1546      2.00000
     16      -1.0826      2.00000
     17      -0.9816      2.00000
     18      -0.9597      2.00000
     19      -0.7981      2.00000
     20      -0.4118      2.00000
     21      -0.3244      2.00000
     22      -0.0635      2.00000
     23       0.1080      2.00000
     24       0.2887      2.00000
     25       0.6200      2.00000
     26       0.7939      2.00000
     27       0.9261      2.00000
     28       1.0634      2.00000
     29       1.1458      2.00000
     30       1.3235      2.00000
     31       1.3599      2.00000
     32       1.3796      2.00000
     33       1.4143      2.00000
     34       1.4895      2.00000
     35       1.5742      2.00000
     36       1.5855      2.00000
     37       1.6144      2.00000
     38       1.6671      2.00000
     39       1.7514      2.00000
     40       1.8236      2.00000
     41       1.8677      2.00000
     42       2.6001      2.00000
     43       3.7411      2.00000
     44       4.0892      2.00000
     45       4.4439      2.00000
     46       4.8094      2.00000
     47       5.1305      2.00000
     48       5.7286      2.00000
     49       5.8194      1.99999
     50       6.4868      0.00000
     51       6.7187      0.00000
     52       7.4035      0.00000
     53       7.8808      0.00000
     54       8.4765      0.00000
     55       9.0399      0.00000
     56       9.6311      0.00000
     57       9.7865      0.00000
     58      10.0512      0.00000
     59      10.2079      0.00000
     60      10.7368      0.00000
     61      10.7958      0.00000
     62      11.0218      0.00000

 k-point     7 :       0.4615    0.0000   -0.0000
  band No.  band energies     occupation 
      1     -13.4903      2.00000
      2     -13.4778      2.00000
      3     -13.4593      2.00000
      4     -13.4270      2.00000
      5     -13.3902      2.00000
      6     -13.3470      2.00000
      7     -13.3090      2.00000
      8     -13.2746      2.00000
      9     -13.2553      2.00000
     10      -1.9078      2.00000
     11      -1.8027      2.00000
     12      -1.6455      2.00000
     13      -1.4674      2.00000
     14      -1.4609      2.00000
     15      -1.3808      2.00000
     16      -1.3159      2.00000
     17      -1.2601      2.00000
     18      -1.2235      2.00000
     19       0.1776      2.00000
     20       0.3133      2.00000
     21       0.5158      2.00000
     22       0.6002      2.00000
     23       0.7092      2.00000
     24       0.7319      2.00000
     25       0.8761      2.00000
     26       0.9716      2.00000
     27       0.9935      2.00000
     28       1.2537      2.00000
     29       1.2838      2.00000
     30       1.2902      2.00000
     31       1.3448      2.00000
     32       1.4203      2.00000
     33       1.5000      2.00000
     34       1.5054      2.00000
     35       1.5156      2.00000
     36       1.5987      2.00000
     37       1.6833      2.00000
     38       1.7560      2.00000
     39       1.8002      2.00000
     40       2.1467      2.00000
     41       2.2513      2.00000
     42       2.6200      2.00000
     43       2.9388      2.00000
     44       3.1361      2.00000
     45       3.7389      2.00000
     46       4.0213      2.00000
     47       4.6151      2.00000
     48       5.1890      2.00000
     49       5.5954      2.00000
     50       6.2158      0.00000
     51       6.6961      0.00000
     52       6.9120      0.00000
     53       7.5795      0.00000
     54       7.8690      0.00000
     55       8.4717      0.00000
     56       9.1459      0.00000
     57       9.5696      0.00000
     58       9.9396      0.00000
     59      10.2814      0.00000
     60      10.4915      0.00000
     61      10.7511      0.00000
     62      10.8993      0.00000

 k-point     8 :       0.0769    0.0769   -0.0000
  band No.  band energies     occupation 
      1     -14.4690      2.00000
      2     -14.4103      2.00000
      3     -14.3193      2.00000
      4     -14.1946      2.00000
      5     -14.0504      2.00000
      6     -13.8936      2.00000
      7     -13.7470      2.00000
      8     -13.6218      2.00000
      9     -13.5429      2.00000
[...]
     58       9.1041      0.00000
     59       9.5138      0.00000
     60       9.6002      0.00000
     61      10.1440      0.00000
     62      10.4939      0.00000

 k-point    19 :       0.3077    0.2308    0.0000
  band No.  band energies     occupation 
      1     -13.4648      2.00000
      2     -13.4545      2.00000
      3     -13.4359      2.00000
      4     -13.4024      2.00000
      5     -13.3666      2.00000
      6     -13.3244      2.00000
      7     -13.2888      2.00000
      8     -13.2562      2.00000
      9     -13.2372      2.00000
     10      -1.3979      2.00000
     11      -1.3042      2.00000
     12      -1.1791      2.00000
     13      -1.1621      2.00000
     14      -1.1086      2.00000
     15      -1.0564      2.00000
     16      -1.0041      2.00000
     17      -0.8589      2.00000
     18      -0.7095      2.00000
     19      -0.2942      2.00000
     20      -0.1400      2.00000
     21       0.0106      2.00000
     22       0.1868      2.00000
     23       0.2964      2.00000
     24       0.3730      2.00000
     25       0.3974      2.00000
     26       0.4925      2.00000
     27       0.6173      2.00000
     28       0.6996      2.00000
     29       0.7086      2.00000
     30       0.7674      2.00000
     31       0.8956      2.00000
     32       1.0117      2.00000
     33       1.0519      2.00000
     34       1.1534      2.00000
     35       1.2309      2.00000
     36       1.3289      2.00000
     37       1.4214      2.00000
     38       1.5312      2.00000
     39       1.5763      2.00000
     40       2.2590      2.00000
     41       3.0675      2.00000
     42       3.9540      2.00000
     43       4.0944      2.00000
     44       4.2497      2.00000
     45       4.7825      2.00000
     46       5.2078      2.00000
     47       5.5428      2.00000
     48       5.5632      2.00000
     49       5.8174      1.99989
     50       6.2381      0.00000
     51       6.3386      0.00000
     52       6.5912      0.00000
     53       7.0696      0.00000
     54       7.1869      0.00000
     55       7.4528      0.00000
     56       7.9074      0.00000
     57       8.0124      0.00000
     58       8.4976      0.00000
     59       8.9618      0.00000
     60       9.0281      0.00000
     61       9.5541      0.00000
     62       9.9258      0.00000

 k-point    20 :       0.3846    0.2308    0.0000
  band No.  band energies     occupation 
      1     -13.3813      2.00000
      2     -13.3766      2.00000
      3     -13.3646      2.00000
      4     -13.3455      2.00000
      5     -13.3274      2.00000
      6     -13.3027      2.00000
      7     -13.2830      2.00000
      8     -13.2627      2.00000
      9     -13.2516      2.00000
     10      -1.4770      2.00000
     11      -1.3748      2.00000
     12      -1.2251      2.00000
     13      -1.0527      2.00000
     14      -1.0482      2.00000
     15      -1.0185      2.00000
     16      -0.9738      2.00000
     17      -0.9343      2.00000
     18      -0.9221      2.00000
     19      -0.1052      2.00000
     20      -0.0789      2.00000
     21      -0.0297      2.00000
     22       0.0217      2.00000
     23       0.0279      2.00000
     24       0.0772      2.00000
     25       0.2097      2.00000
     26       0.3766      2.00000
     27       0.5458      2.00000
     28       0.7926      2.00000
     29       0.8195      2.00000
     30       0.9730      2.00000
     31       1.0305      2.00000
     32       1.0789      2.00000
     33       1.1968      2.00000
     34       1.3225      2.00000
     35       1.4004      2.00000
     36       1.4021      2.00000
     37       2.2071      2.00000
     38       2.2196      2.00000
     39       2.4967      2.00000
     40       2.5284      2.00000
     41       3.0373      2.00000
     42       3.1056      2.00000
     43       3.6925      2.00000
     44       3.7669      2.00000
     45       4.4268      2.00000
     46       4.7191      2.00000
     47       5.4279      2.00000
     48       5.5061      2.00000
     49       5.7051      2.00000
     50       5.7482      2.00000
     51       6.2506      0.00000
     52       6.7332      0.00000
     53       6.7484      0.00000
     54       7.1692      0.00000
     55       7.7008      0.00000
     56       7.7666      0.00000
     57       7.8781      0.00000
     58       8.2127      0.00000
     59       8.6652      0.00000
     60       8.9032      0.00000
     61       9.1730      0.00000
     62       9.6737      0.00000

 k-point    21 :       0.3077    0.3077    0.0000
  band No.  band energies     occupation 
      1     -13.3552      2.00000
      2     -13.3502      2.00000
      3     -13.3335      2.00000
      4     -13.3190      2.00000
      5     -13.3065      2.00000
      6     -13.2883      2.00000
      7     -13.2753      2.00000
      8     -13.2614      2.00000
      9     -13.2543      2.00000
     10      -1.1264      2.00000
     11      -1.1235      2.00000
     12      -1.0377      2.00000
     13      -1.0312      2.00000
     14      -0.9392      2.00000
     15      -0.8869      2.00000
     16      -0.7316      2.00000
     17      -0.7303      2.00000
     18      -0.6186      2.00000
     19      -0.5330      2.00000
     20      -0.4608      2.00000
     21      -0.3422      2.00000
     22      -0.2657      2.00000
     23      -0.1884      2.00000
     24      -0.0574      2.00000
     25      -0.0403      2.00000
     26       0.1052      2.00000
     27       0.1124      2.00000
     28       0.7977      2.00000
     29       0.8149      2.00000
     30       1.0003      2.00000
     31       1.1207      2.00000
     32       1.1758      2.00000
     33       1.2206      2.00000
     34       1.2235      2.00000
     35       1.2597      2.00000
     36       1.3639      2.00000
     37       2.0890      2.00000
     38       2.3907      2.00000
     39       2.9464      2.00000
     40       3.5995      2.00000
     41       3.7111      2.00000
     42       3.7128      2.00000
     43       3.9883      2.00000
     44       4.0152      2.00000
     45       4.3690      2.00000
     46       4.5348      2.00000
     47       4.5422      2.00000
     48       5.1034      2.00000
     49       5.2875      2.00000
     50       5.5183      2.00000
     51       6.0650      0.00167
     52       6.2140      0.00000
     53       6.7558      0.00000
     54       7.0632      0.00000
     55       7.3483      0.00000
     56       7.6669      0.00000
     57       8.0838      0.00000
     58       8.1944      0.00000
     59       8.3090      0.00000
     60       8.8001      0.00000
     61       9.2110      0.00000
     62       9.4329      0.00000


--------------------------------------------------------------------------------------------------------


 soft charge-density along one line, spin component           1
         0         1         2         3         4         5         6         7         8         9
 total charge-density along one line
 
 pseudopotential strength for first ion, spin component:           1
 12.225   0.000 -14.878   0.000   0.000   0.000  -0.000   0.000  -0.000   0.000  -0.000   0.000   0.000   0.000   0.000   0.000
-14.878   0.000  18.127   0.000  -0.000   0.000   0.000   0.000   0.000   0.000   0.000   0.000  -0.000   0.000  -0.000   0.000
  0.000   0.000  -0.000   0.000  -8.372   0.000  -0.000   0.000   0.000   0.000  10.035   0.000   0.000   0.000  -0.000   0.000
 -0.000   0.000   0.000   0.000  -0.000   0.000  -8.378   0.000   0.000   0.000   0.000   0.000  10.044   0.000  -0.000   0.000
 -0.000   0.000   0.000   0.000   0.000   0.000   0.000   0.000  -8.372   0.000  -0.000   0.000  -0.000   0.000  10.035   0.000
 -0.000   0.000   0.000   0.000  10.035   0.000   0.000   0.000  -0.000   0.000 -11.870   0.000  -0.000   0.000   0.000   0.000
  0.000   0.000  -0.000   0.000   0.000   0.000  10.044   0.000  -0.000   0.000  -0.000   0.000 -11.882   0.000   0.000   0.000
  0.000   0.000  -0.000   0.000  -0.000   0.000  -0.000   0.000  10.035   0.000   0.000   0.000   0.000   0.000 -11.870   0.000
 total augmentation occupancy for first ion, spin component:           1
  2.590   0.357   0.000  -0.000  -0.000   0.000  -0.000   0.000
  0.357   0.066   0.000   0.000  -0.000   0.000  -0.000   0.000
  0.000   0.000   2.151  -0.000   0.000   0.255  -0.000   0.000
 -0.000   0.000  -0.000   2.146   0.000  -0.000   0.261   0.000
 -0.000  -0.000   0.000   0.000   2.151   0.000   0.000   0.255
  0.000   0.000   0.255  -0.000   0.000   0.033  -0.000   0.000
 -0.000  -0.000  -0.000   0.261   0.000  -0.000   0.034  -0.000
  0.000   0.000   0.000   0.000   0.255   0.000  -0.000   0.033


------------------------ aborting loop because EDIFF is reached ----------------------------------------


    CHARGE:  cpu time    0.38: real time    0.38
    FORLOC:  cpu time    0.04: real time    0.04
    FORNL :  cpu time    6.62: real time    6.63
    STRESS:  cpu time    4.12: real time    4.12
    FORCOR:  cpu time    0.14: real time    0.14
    FORHAR:  cpu time    0.06: real time    0.06
    MIXING:  cpu time    0.00: real time    0.00
    OFIELD:  cpu time    0.00: real time    0.00

  FORCE on cell =-STRESS in cart. coord.  units (eV):
  Direction    XX          YY          ZZ          XY          YZ          ZX
  --------------------------------------------------------------------------------------
  Alpha Z   117.69416   117.69416   117.69416
  Ewald   20495.39333 20495.39362-22951.73408    -0.00002    -0.00003    -0.00014
  Hartree 22074.91533 22074.91526-21219.02861    -0.00000    -0.00000     0.00004
  E(xc)    -387.15470  -387.15471  -386.96269    -0.00000     0.00000    -0.00000
  Local  -43701.59588-43701.59541 43038.41182    -0.00016     0.00003     0.00004
  n-local   -26.30904   -38.21415   -32.42351     2.69917    -1.50653     4.82764
  augment    53.24812    53.24790    52.55313     0.00016     0.00000     0.00000
  Kinetic  1396.55045  1351.11834  1362.36698     2.80401    -0.37368     0.85818
  Fock        0.00000     0.00000     0.00000     0.00000     0.00000     0.00000
  -------------------------------------------------------------------------------------
  Total      -5.92662    -5.92662   -19.12281    -0.00000     0.00000    -0.00000
  in kB     -27.63910   -27.63909   -89.18022    -0.00000     0.00000    -0.00000
  external pressure =      -48.15 kB  Pullay stress =        0.00 kB


 VOLUME and BASIS-vectors are now :
 -----------------------------------------------------------------------------
  energy-cutoff  :      520.00
  volume of cell :      343.55
      direct lattice vectors                 reciprocal lattice vectors
     2.591982046 -1.496481076  0.000000000     0.385805142 -0.000000000 -0.000000000
     0.000000000  2.992962152  0.000000000     0.192902571  0.334117155  0.000000000
     0.000000000 -0.000000000 44.285401460     0.000000000  0.000000000  0.022580805

  length of vectors
     2.992962836  2.992962152 44.285401460     0.385805142  0.385805230  0.022580805


 FORCES acting on ions
    electron-ion (+dipol)            ewald-force                    non-local-force                 convergence-correction
 -----------------------------------------------------------------------------------------------
   -.130E-07 -.359E-08 0.109E+04   -.102E-06 0.125E-06 -.109E+04   0.361E-18 0.844E-18 0.618E-01   -.732E-09 0.142E-08 0.761E-01
   0.106E-02 -.184E-02 0.725E+03   0.546E-04 -.946E-04 -.725E+03   -.133E-20 -.950E-20 0.725E-02   0.105E-07 -.181E-07 0.487E-01
   -.416E-09 0.948E-10 0.553E-01   0.213E-07 -.237E-07 -.117E-01   -.232E-20 -.125E-19 0.626E-02   -.440E-09 0.499E-09 -.495E-01
   0.106E-02 -.184E-02 -.363E+03   0.547E-04 -.946E-04 0.363E+03   0.924E-20 -.898E-19 0.227E-01   -.739E-09 0.107E-08 -.786E-01
   0.117E-07 0.378E-08 -.109E+04   0.742E-07 -.927E-07 0.109E+04   0.415E-18 0.235E-19 -.624E-01   0.121E-08 -.197E-08 -.689E-01
   0.107E-02 -.185E-02 -.144E+04   0.497E-04 -.828E-04 0.144E+04   -.319E-17 -.296E-17 -.134E+01   -.154E-07 0.263E-07 -.704E-01
   -.107E-02 0.185E-02 0.144E+04   -.497E-04 0.827E-04 -.144E+04   0.146E-17 -.744E-17 0.133E+01   0.690E-08 -.113E-07 0.996E-01
   -.106E-02 0.184E-02 0.363E+03   -.547E-04 0.947E-04 -.363E+03   0.307E-20 0.463E-19 -.151E-01   0.387E-08 -.687E-08 -.106E-02
   -.106E-02 0.184E-02 -.725E+03   -.546E-04 0.946E-04 0.725E+03   0.795E-20 0.894E-20 -.576E-02   -.104E-07 0.176E-07 -.921E-01
   -.948E-05 0.255E-05 0.524E+03   0.228E-04 -.241E-04 -.524E+03   -.326E-17 0.140E-16 -.350E+00   -.251E-09 0.492E-09 0.279E-01
   0.270E-08 -.186E-07 0.181E+03   0.290E-07 -.325E-07 -.181E+03   -.527E-20 0.156E-20 -.413E-02   -.313E-09 0.653E-09 0.611E-02
   0.512E-07 -.583E-07 -.181E+03   -.605E-07 0.677E-07 0.181E+03   -.159E-19 -.575E-19 0.866E-02   0.112E-09 -.250E-09 -.288E-01
   0.948E-05 -.256E-05 -.524E+03   -.228E-04 0.241E-04 0.524E+03   0.326E-17 -.418E-16 0.348E+00   0.104E-08 -.194E-08 -.138E-01
   0.420E-04 -.729E-04 0.302E+03   -.471E-04 0.816E-04 -.302E+03   -.182E-18 0.439E-18 -.150E-01   0.392E-09 -.725E-09 0.219E-01
   0.422E-04 -.730E-04 -.605E+02   -.472E-04 0.817E-04 0.605E+02   -.100E-18 -.222E-18 0.124E-01   -.300E-10 0.153E-09 -.225E-01
   0.421E-04 -.729E-04 -.423E+03   -.471E-04 0.816E-04 0.423E+03   0.133E-18 0.171E-17 0.633E-01   -.596E-09 0.113E-08 -.223E-01
   -.422E-04 0.730E-04 0.423E+03   0.471E-04 -.815E-04 -.423E+03   -.143E-17 0.350E-17 -.687E-01   0.664E-09 -.124E-08 0.304E-01
   -.422E-04 0.731E-04 0.605E+02   0.472E-04 -.818E-04 -.605E+02   0.136E-20 0.565E-19 -.597E-02   -.128E-09 0.136E-09 -.940E-02
   -.420E-04 0.728E-04 -.302E+03   0.471E-04 -.816E-04 0.302E+03   -.249E-18 0.320E-18 0.139E-01   -.905E-09 0.164E-08 -.288E-01
   0.145E-09 -.287E-09 -.340E-01   -.567E-10 0.548E-10 0.273E-01   0.536E-20 0.212E-22 -.563E-04   0.300E-11 -.213E-11 0.665E-02
   -.347E-06 -.232E-07 0.487E+03   0.140E-05 -.126E-05 -.487E+03   -.455E-16 0.276E-16 0.287E+00   0.331E-11 -.325E-11 0.295E-01
   0.147E-04 -.254E-04 0.319E+03   -.235E-05 0.426E-05 -.319E+03   -.360E-17 -.139E-16 0.157E+00   0.167E-10 -.295E-10 0.208E-01
   -.146E-04 0.253E-04 0.164E+03   0.242E-05 -.434E-05 -.164E+03   -.200E-17 0.883E-19 -.235E+00   -.945E-11 0.199E-10 0.136E-01
   0.347E-06 0.230E-07 -.487E+03   -.140E-05 0.126E-05 0.487E+03   -.583E-17 0.556E-16 -.286E+00   -.672E-11 0.315E-11 -.122E-01
   0.146E-04 -.253E-04 -.164E+03   -.242E-05 0.434E-05 0.164E+03   -.104E-17 0.138E-16 0.234E+00   0.131E-10 -.252E-10 0.199E-03
   -.147E-04 0.254E-04 -.319E+03   0.235E-05 -.426E-05 0.319E+03   0.127E-18 0.417E-16 -.157E+00   -.131E-10 0.188E-10 -.556E-02
 -----------------------------------------------------------------------------------------------
   -.722E-08 0.259E-07 0.118E+00   0.218E-13 0.773E-14 0.398E-12   -.606E-16 0.933E-16 0.502E-02   -.528E-08 0.875E-08 -.122E+00
 
 
 POSITION                                       TOTAL-FORCE (eV/Angst)
 -----------------------------------------------------------------------------------
      0.00000     -0.00000     15.71579         0.000000     -0.000000      0.009517
      0.86399      1.49648     18.23980         0.000000     -0.000000      0.006130
      0.00000     -0.00000     23.28489         0.000000      0.000000      0.000348
      0.86399      1.49648     25.80583        -0.000000      0.000000      0.008435
      0.00000     -0.00000     30.85380         0.000000      0.000000     -0.007388
      0.86399      1.49648     33.37648         0.000000     -0.000000     -0.015260
      1.72799     -0.00000     13.19325        -0.000000      0.000000      0.012668
      1.72799     -0.00000     20.76396        -0.000000     -0.000000     -0.008778
      1.72799     -0.00000     28.33000         0.000000      0.000000     -0.006587
      0.00000     -0.00000     11.89011         0.000000     -0.000000      0.012221
      0.00000     -0.00000     19.50220         0.000000      0.000000     -0.001275
      0.00000     -0.00000     27.06725         0.000000     -0.000000      0.002653
      0.00000     -0.00000     34.67959         0.000000      0.000000     -0.008207
      1.72799     -0.00000     16.97911         0.000000      0.000000     -0.007010
      1.72799     -0.00000     24.54443         0.000000     -0.000000      0.015749
      1.72799     -0.00000     32.11464         0.000000      0.000000     -0.000809
      0.86399      1.49648     14.45542         0.000000      0.000000     -0.002124
      0.86399      1.49648     22.02489         0.000000      0.000000     -0.015577
      0.86399      1.49648     29.59070         0.000000     -0.000000      0.005298
      0.00000     -0.00000      1.14191         0.000000      0.000000     -0.000043
      0.00000     -0.00000      8.57656         0.000000     -0.000000      0.015650
      1.72799     -0.00000      6.06419         0.000000      0.000000     -0.006308
      0.86399      1.49648      3.63116         0.000000      0.000000     -0.018605
      0.00000     -0.00000     37.99253         0.000000      0.000000     -0.015430
      1.72799     -0.00000     42.93806         0.000000     -0.000000      0.018556
      0.86399      1.49648     40.50499         0.000000     -0.000000      0.006177
 -----------------------------------------------------------------------------------
    total drift:                               -0.000000      0.000000      0.000734


--------------------------------------------------------------------------------------------------------



  FREE ENERGIE OF THE ION-ELECTRON SYSTEM (eV)
  ---------------------------------------------------
  free  energy   TOTEN  =      -132.50530335 eV

  energy  without entropy=     -132.50185298  energy(sigma->0) =     -132.50357817
 
 d Force = 0.1940849E-03[ 0.142E-03, 0.246E-03]  d Energy = 0.1803647E-03 0.137E-04
 d Force =-0.8006118E+01[-0.801E+01,-0.800E+01]  d Ewald  =-0.8006118E+01 0.529E-07


--------------------------------------------------------------------------------------------------------


    POTLOK:  cpu time    0.20: real time    0.20


--------------------------------------------------------------------------------------------------------


 Conjugate gradient step on ions:
 trial-energy change:   -0.000180  1 .order   -0.000194   -0.000246   -0.000142
  (g-gl).g = 0.228E-03      g.g   = 0.211E-03  gl.gl    = 0.133E-02
 g(Force)  = 0.211E-03   g(Stress)= 0.000E+00 ortho     =-0.158E-05
 gamma     =   0.17139
 trial     =   1.17080
 opt step  =   2.76475  (harmonic =   2.76475) maximal distance =0.00362895
 next E    =  -132.505414   (d E  =  -0.00029)


--------------------------------------------------------------------------------------------------------


  
 reached required accuracy - stopping structural energy minimisation
     LOOP+:  cpu time   37.94: real time   37.98
    4ORBIT:  cpu time    0.00: real time    0.00

 total amount of memory used by VASP on root node   152989. kBytes
========================================================================

   base      :      30000. kBytes
   nonl-proj :      16444. kBytes
   fftplans  :      57934. kBytes
   grid      :      23224. kBytes
   one-center:         56. kBytes
   wavefun   :      25331. kBytes
 
  
  
 General timing and accounting informations for this job:
 ========================================================
  
                  Total CPU time used (sec):     1192.729
                            User time (sec):     1175.801
                          System time (sec):       16.928
                         Elapsed time (sec):     1193.803
  
                   Maximum memory used (kb):      257444.
                   Average memory used (kb):           0.
  
                          Minor page faults:       327980
                          Major page faults:            0
                 Voluntary context switches:          201
