       N       E                     dE             d eps       ncg     rms          rms(c)
DAV:   1     0.507348304813E+03    0.50735E+03   -0.44152E+04  6304   0.134E+03
DAV:   2    -0.986038280559E+02   -0.60595E+03   -0.57586E+03  8096   0.259E+02
DAV:   3    -0.154924322596E+03   -0.56320E+02   -0.56000E+02  7392   0.856E+01
DAV:   4    -0.155648395374E+03   -0.72407E+00   -0.72265E+00  7392   0.106E+01
DAV:   5    -0.155659124276E+03   -0.10729E-01   -0.10725E-01  7408   0.126E+00    0.230E+01
DAV:   6    -0.140094104196E+03    0.15565E+02   -0.89017E+01  7664   0.322E+01    0.789E+00
DAV:   7    -0.140020887582E+03    0.73217E-01   -0.27717E+00  7136   0.628E+00    0.484E+00
DAV:   8    -0.139950902300E+03    0.69985E-01   -0.90911E-01  7408   0.480E+00    0.137E+00
DAV:   9    -0.139911304230E+03    0.39598E-01   -0.16281E-01  7288   0.176E+00    0.655E-01
DAV:  10    -0.139914916560E+03   -0.36123E-02   -0.13860E-01  7096   0.148E+00    0.474E-01
DAV:  11    -0.139911299500E+03    0.36171E-02   -0.12804E-02  7968   0.604E-01    0.259E-01
DAV:  12    -0.139911239695E+03    0.59805E-04   -0.11920E-02  7288   0.472E-01    0.104E-01
DAV:  13    -0.139911265825E+03   -0.26130E-04   -0.11420E-03  7392   0.175E-01    0.640E-02
DAV:  14    -0.139911214233E+03    0.51592E-04   -0.42663E-04  7416   0.104E-01    0.249E-02
DAV:  15    -0.139911205368E+03    0.88655E-05   -0.10310E-04  7136   0.455E-02    0.694E-03
DAV:  16    -0.139911199089E+03    0.62789E-05   -0.11603E-05  4576   0.269E-02
   1 F= -.13991120E+03 E0= -.13991044E+03  d E =-.139911E+03
       N       E                     dE             d eps       ncg     rms          rms(c)
DAV:   1    -0.139912548898E+03   -0.13435E-02   -0.17711E-02  6616   0.553E-01    0.450E-02
DAV:   2    -0.139912514106E+03    0.34792E-04   -0.13593E-03  7416   0.173E-01    0.375E-02
DAV:   3    -0.139912487597E+03    0.26509E-04   -0.18476E-04  7208   0.611E-02    0.301E-02
DAV:   4    -0.139912453202E+03    0.34395E-04   -0.84993E-05  7208   0.438E-02    0.134E-02
DAV:   5    -0.139912423839E+03    0.29363E-04   -0.57014E-05  7216   0.613E-02    0.125E-02
DAV:   6    -0.139912416532E+03    0.73075E-05   -0.37573E-05  6576   0.429E-02
   2 F= -.13991242E+03 E0= -.13991164E+03  d E =-.121744E-02
       N       E                     dE             d eps       ncg     rms          rms(c)
DAV:   1    -0.139912706991E+03   -0.28315E-03   -0.78243E-03  6520   0.367E-01    0.253E-02
DAV:   2    -0.139912696633E+03    0.10358E-04   -0.55998E-04  7384   0.102E-01    0.254E-02
DAV:   3    -0.139912680591E+03    0.16042E-04   -0.54842E-05  6936   0.359E-02    0.201E-02
DAV:   4    -0.139912656528E+03    0.24063E-04   -0.73148E-05  7152   0.472E-02    0.963E-03
DAV:   5    -0.139912645807E+03    0.10721E-04   -0.27709E-05  6336   0.401E-02    0.120E-02
DAV:   6    -0.139912640996E+03    0.48116E-05   -0.23704E-05  5672   0.256E-02
   3 F= -.13991264E+03 E0= -.13991184E+03  d E =-.144191E-02
       N       E                     dE             d eps       ncg     rms          rms(c)
DAV:   1    -0.139913184056E+03   -0.53825E-03   -0.19563E-01  6288   0.187E+00    0.608E-02
DAV:   2    -0.139913649160E+03   -0.46510E-03   -0.51633E-03  7120   0.258E-01    0.382E-02
DAV:   3    -0.139913615840E+03    0.33320E-04   -0.50733E-05  7336   0.467E-02    0.250E-02
DAV:   4    -0.139913593214E+03    0.22625E-04   -0.35977E-05  6592   0.465E-02    0.102E-02
DAV:   5    -0.139913583791E+03    0.94232E-05   -0.25607E-05  5976   0.448E-02    0.396E-03
DAV:   6    -0.139913580780E+03    0.30108E-05   -0.16204E-05  4504   0.265E-02
   4 F= -.13991358E+03 E0= -.13991276E+03  d E =-.939785E-03
       N       E                     dE             d eps       ncg     rms          rms(c)
DAV:   1    -0.139911257358E+03    0.23264E-02   -0.15939E+00  6272   0.534E+00    0.175E-01
DAV:   2    -0.139915097069E+03   -0.38397E-02   -0.43082E-02  7120   0.745E-01    0.112E-01
DAV:   3    -0.139914794486E+03    0.30258E-03   -0.40058E-04  7424   0.140E-01    0.739E-02
DAV:   4    -0.139914572368E+03    0.22212E-03   -0.37998E-04  7424   0.154E-01    0.291E-02
DAV:   5    -0.139914495477E+03    0.76891E-04   -0.25857E-04  7824   0.130E-01    0.120E-02
DAV:   6    -0.139914463162E+03    0.32315E-04   -0.10004E-04  6960   0.733E-02    0.119E-02
DAV:   7    -0.139914418202E+03    0.44960E-04   -0.95376E-06  4520   0.557E-02    0.654E-03
DAV:   8    -0.139914360051E+03    0.58151E-04   -0.29232E-05  6080   0.928E-02    0.876E-03
DAV:   9    -0.139914286154E+03    0.73896E-04   -0.12722E-04  9168   0.185E-01    0.124E-02
DAV:  10    -0.139914248481E+03    0.37674E-04   -0.10342E-04  7248   0.139E-01    0.823E-03
DAV:  11    -0.139914247639E+03    0.84186E-06   -0.12005E-04  6848   0.508E-02    0.894E-03
DAV:  12    -0.139914236205E+03    0.11434E-04   -0.53625E-05  6720   0.505E-02    0.137E-02
DAV:  13    -0.139914221824E+03    0.14381E-04   -0.14744E-05  4984   0.603E-02    0.784E-03
DAV:  14    -0.139914218273E+03    0.35503E-05   -0.63259E-05  6768   0.599E-02
   5 F= -.13991422E+03 E0= -.13991334E+03  d E =-.157728E-02
       N       E                     dE             d eps       ncg     rms          rms(c)
DAV:   1    -0.139914122248E+03    0.99576E-04   -0.10639E-01  6328   0.138E+00    0.421E-02
DAV:   2    -0.139914367658E+03   -0.24541E-03   -0.27307E-03  7112   0.191E-01    0.279E-02
DAV:   3    -0.139914350541E+03    0.17117E-04   -0.22821E-05  6264   0.286E-02    0.192E-02
DAV:   4    -0.139914336101E+03    0.14440E-04   -0.22525E-05  5912   0.346E-02    0.677E-03
DAV:   5    -0.139914332971E+03    0.31294E-05   -0.17493E-05  5016   0.291E-02    0.292E-03
DAV:   6    -0.139914331484E+03    0.14876E-05   -0.57674E-06  4248   0.180E-02
   6 F= -.13991433E+03 E0= -.13991347E+03  d E =-.169049E-02
       N       E                     dE             d eps       ncg     rms          rms(c)
DAV:   1    -0.139914652478E+03   -0.31951E-03   -0.57144E-02  6288   0.102E+00    0.324E-02
DAV:   2    -0.139914791282E+03   -0.13880E-03   -0.15155E-03  7064   0.144E-01    0.192E-02
DAV:   3    -0.139914782851E+03    0.84308E-05   -0.12569E-05  5000   0.190E-02    0.134E-02
DAV:   4    -0.139914774617E+03    0.82344E-05   -0.15371E-05  4824   0.240E-02    0.432E-03
DAV:   5    -0.139914772735E+03    0.18819E-05   -0.68574E-06  4144   0.168E-02    0.312E-03
DAV:   6    -0.139914769635E+03    0.30995E-05   -0.16906E-06  4152   0.195E-02
   7 F= -.13991477E+03 E0= -.13991390E+03  d E =-.438151E-03
       N       E                     dE             d eps       ncg     rms          rms(c)
DAV:   1    -0.139914679257E+03    0.93477E-04   -0.51334E-01  6272   0.307E+00    0.981E-02
DAV:   2    -0.139915936645E+03   -0.12574E-02   -0.13624E-02  7024   0.431E-01    0.571E-02
DAV:   3    -0.139915866065E+03    0.70580E-04   -0.11568E-04  7408   0.546E-02    0.387E-02
DAV:   4    -0.139915812284E+03    0.53781E-04   -0.11436E-04  7232   0.575E-02    0.135E-02
DAV:   5    -0.139915799864E+03    0.12420E-04   -0.43794E-05  6608   0.409E-02    0.724E-03
DAV:   6    -0.139915784927E+03    0.14937E-04   -0.10129E-05  4496   0.387E-02    0.449E-03
DAV:   7    -0.139915767346E+03    0.17581E-04   -0.56798E-06  4472   0.454E-02    0.370E-03
DAV:   8    -0.139915736764E+03    0.30582E-04   -0.14040E-05  5168   0.810E-02    0.546E-03
DAV:   9    -0.139915712393E+03    0.24372E-04   -0.39398E-05  6632   0.852E-02    0.612E-03
DAV:  10    -0.139915693673E+03    0.18719E-04   -0.35720E-05  6344   0.123E-01    0.636E-03
DAV:  11    -0.139915698319E+03   -0.46456E-05   -0.89861E-05  6712   0.734E-02
   8 F= -.13991570E+03 E0= -.13991481E+03  d E =-.136684E-02
       N       E                     dE             d eps       ncg     rms          rms(c)
DAV:   1    -0.139911601211E+03    0.40925E-02   -0.20547E+00  6280   0.614E+00    0.196E-01
DAV:   2    -0.139916675889E+03   -0.50747E-02   -0.54728E-02  7016   0.851E-01    0.115E-01
DAV:   3    -0.139916407264E+03    0.26863E-03   -0.46543E-04  7416   0.108E-01    0.774E-02
DAV:   4    -0.139916234445E+03    0.17282E-03   -0.41090E-04  7352   0.104E-01    0.274E-02
DAV:   5    -0.139916206017E+03    0.28428E-04   -0.15983E-04  7224   0.701E-02    0.126E-02
DAV:   6    -0.139916180851E+03    0.25167E-04   -0.38328E-05  6400   0.543E-02    0.860E-03
DAV:   7    -0.139916156618E+03    0.24233E-04   -0.10860E-05  4384   0.466E-02    0.515E-03
DAV:   8    -0.139916115324E+03    0.41294E-04   -0.22396E-05  5704   0.754E-02    0.765E-03
DAV:   9    -0.139916083388E+03    0.31936E-04   -0.23818E-05  5440   0.628E-02    0.824E-03
DAV:  10    -0.139916027941E+03    0.55447E-04   -0.56859E-05  7464   0.155E-01    0.108E-02
DAV:  11    -0.139916003776E+03    0.24164E-04   -0.11374E-04  8584   0.164E-01    0.904E-03
DAV:  12    -0.139916014225E+03   -0.10449E-04   -0.14508E-04  6568   0.673E-02    0.657E-03
DAV:  13    -0.139916015636E+03   -0.14104E-05   -0.33573E-05  5712   0.277E-02
   9 F= -.13991602E+03 E0= -.13991508E+03  d E =-.168415E-02
       N       E                     dE             d eps       ncg     rms          rms(c)
DAV:   1    -0.139915484204E+03    0.53002E-03   -0.31290E-01  6320   0.238E+00    0.797E-02
DAV:   2    -0.139916253990E+03   -0.76979E-03   -0.83930E-03  7016   0.332E-01    0.431E-02
DAV:   3    -0.139916214445E+03    0.39545E-04   -0.74100E-05  7392   0.430E-02    0.300E-02
DAV:   4    -0.139916185567E+03    0.28878E-04   -0.77058E-05  7064   0.462E-02    0.106E-02
DAV:   5    -0.139916181075E+03    0.44919E-05   -0.27848E-05  5824   0.288E-02    0.720E-03
DAV:   6    -0.139916175400E+03    0.56752E-05   -0.10936E-05  4416   0.283E-02
  10 F= -.13991618E+03 E0= -.13991527E+03  d E =-.184392E-02
       N       E                     dE             d eps       ncg     rms          rms(c)
DAV:   1    -0.139916748580E+03   -0.56750E-03   -0.94489E-02  6336   0.136E+00    0.405E-02
DAV:   2    -0.139916935589E+03   -0.18701E-03   -0.21477E-03  7168   0.185E-01    0.223E-02
DAV:   3    -0.139916923025E+03    0.12564E-04   -0.23182E-05  5712   0.236E-02    0.154E-02
DAV:   4    -0.139916908354E+03    0.14671E-04   -0.38586E-05  6872   0.368E-02    0.718E-03
DAV:   5    -0.139916905512E+03    0.28414E-05   -0.10205E-05  4120   0.173E-02    0.769E-03
DAV:   6    -0.139916899320E+03    0.61926E-05   -0.72713E-06  4392   0.204E-02
  11 F= -.13991690E+03 E0= -.13991598E+03  d E =-.723919E-03
       N       E                     dE             d eps       ncg     rms          rms(c)
DAV:   1    -0.139916841486E+03    0.64026E-04   -0.85168E-01  6272   0.409E+00    0.120E-01
DAV:   2    -0.139918591753E+03   -0.17503E-02   -0.19445E-02  7144   0.553E-01    0.675E-02
DAV:   3    -0.139918496176E+03    0.95577E-04   -0.19185E-04  7496   0.660E-02    0.461E-02
DAV:   4    -0.139918419364E+03    0.76811E-04   -0.36636E-04  7312   0.901E-02    0.221E-02
DAV:   5    -0.139918411237E+03    0.81277E-05   -0.66836E-05  7080   0.392E-02    0.197E-02
DAV:   6    -0.139918393426E+03    0.17811E-04   -0.50932E-05  6680   0.441E-02    0.904E-03
DAV:   7    -0.139918385948E+03    0.74776E-05   -0.17203E-05  4832   0.242E-02
  12 F= -.13991839E+03 E0= -.13991743E+03  d E =-.221055E-02
       N       E                     dE             d eps       ncg     rms          rms(c)
DAV:   1    -0.139911924900E+03    0.64685E-02   -0.34060E+00  6272   0.815E+00    0.244E-01
DAV:   2    -0.139918954531E+03   -0.70296E-02   -0.78479E-02  7152   0.111E+00    0.136E-01
DAV:   3    -0.139918576608E+03    0.37792E-03   -0.83511E-04  7424   0.134E-01    0.936E-02
DAV:   4    -0.139918282401E+03    0.29421E-03   -0.14529E-03  7336   0.173E-01    0.449E-02
DAV:   5    -0.139918245869E+03    0.36532E-04   -0.24136E-04  7344   0.784E-02    0.402E-02
DAV:   6    -0.139918183560E+03    0.62309E-04   -0.23573E-04  8296   0.927E-02    0.185E-02
DAV:   7    -0.139918162100E+03    0.21460E-04   -0.69080E-05  6880   0.438E-02    0.171E-02
DAV:   8    -0.139918124562E+03    0.37538E-04   -0.26380E-05  5960   0.417E-02    0.103E-02
DAV:   9    -0.139918070557E+03    0.54005E-04   -0.59481E-05  7104   0.845E-02    0.180E-02
DAV:  10    -0.139918033274E+03    0.37284E-04   -0.62553E-05  7216   0.730E-02    0.802E-03
DAV:  11    -0.139917996533E+03    0.36741E-04   -0.27841E-05  5864   0.871E-02    0.491E-03
DAV:  12    -0.139917972899E+03    0.23634E-04   -0.60778E-05  7504   0.103E-01    0.108E-02
DAV:  13    -0.139917965398E+03    0.75018E-05   -0.60399E-05  6816   0.698E-02
  13 F= -.13991797E+03 E0= -.13991693E+03  d E =-.179000E-02
       N       E                     dE             d eps       ncg     rms          rms(c)
DAV:   1    -0.139916778780E+03    0.11941E-02   -0.10406E+00  6304   0.451E+00    0.131E-01
DAV:   2    -0.139918940362E+03   -0.21616E-02   -0.23856E-02  7120   0.615E-01    0.778E-02
DAV:   3    -0.139918821038E+03    0.11932E-03   -0.22747E-04  7520   0.755E-02    0.533E-02
DAV:   4    -0.139918738442E+03    0.82597E-04   -0.48921E-04  7288   0.978E-02    0.258E-02
DAV:   5    -0.139918730596E+03    0.78453E-05   -0.78246E-05  7136   0.440E-02    0.212E-02
DAV:   6    -0.139918717346E+03    0.13251E-04   -0.88378E-05  7536   0.608E-02    0.917E-03
DAV:   7    -0.139918715558E+03    0.17881E-05   -0.22680E-05  5328   0.212E-02
  14 F= -.13991872E+03 E0= -.13991771E+03  d E =-.254016E-02
       N       E                     dE             d eps       ncg     rms          rms(c)
DAV:   1    -0.139919074479E+03   -0.35713E-03   -0.17984E-01  6320   0.188E+00    0.521E-02
DAV:   2    -0.139919445126E+03   -0.37065E-03   -0.40495E-03  7024   0.253E-01    0.317E-02
DAV:   3    -0.139919420512E+03    0.24614E-04   -0.32602E-05  6408   0.338E-02    0.218E-02
DAV:   4    -0.139919396313E+03    0.24199E-04   -0.56527E-05  6888   0.524E-02    0.571E-03
DAV:   5    -0.139919395534E+03    0.77985E-06   -0.32198E-05  6032   0.261E-02    0.592E-03
DAV:   6    -0.139919393607E+03    0.19261E-05   -0.35948E-06  4120   0.948E-03
  15 F= -.13991939E+03 E0= -.13991838E+03  d E =-.678050E-03
       N       E                     dE             d eps       ncg     rms          rms(c)
DAV:   1    -0.139917780814E+03    0.16147E-02   -0.16232E+00  6304   0.565E+00    0.162E-01
DAV:   2    -0.139921247542E+03   -0.34667E-02   -0.37389E-02  7048   0.766E-01    0.922E-02
DAV:   3    -0.139921051074E+03    0.19647E-03   -0.29463E-04  7504   0.947E-02    0.620E-02
DAV:   4    -0.139920896965E+03    0.15411E-03   -0.44879E-04  7528   0.136E-01    0.156E-02
DAV:   5    -0.139920902646E+03   -0.56806E-05   -0.21118E-04  7208   0.632E-02    0.159E-02
DAV:   6    -0.139920895197E+03    0.74486E-05   -0.15356E-05  4336   0.184E-02
  16 F= -.13992090E+03 E0= -.13991986E+03  d E =-.217964E-02
       N       E                     dE             d eps       ncg     rms          rms(c)
DAV:   1    -0.139908817496E+03    0.12085E-01   -0.64942E+00  6312   0.113E+01    0.327E-01
DAV:   2    -0.139922804403E+03   -0.13987E-01   -0.15100E-01  7072   0.154E+00    0.188E-01
DAV:   3    -0.139921994183E+03    0.81022E-03   -0.12272E-03  7480   0.194E-01    0.125E-01
DAV:   4    -0.139921372466E+03    0.62172E-03   -0.17320E-03  7528   0.270E-01    0.320E-02
DAV:   5    -0.139921391614E+03   -0.19148E-04   -0.84896E-04  7248   0.128E-01    0.304E-02
DAV:   6    -0.139921362797E+03    0.28817E-04   -0.58734E-05  6976   0.346E-02    0.180E-02
DAV:   7    -0.139921316739E+03    0.46059E-04   -0.32715E-05  6400   0.427E-02    0.753E-03
DAV:   8    -0.139921295386E+03    0.21353E-04   -0.12193E-05  4792   0.306E-02    0.657E-03
DAV:   9    -0.139921247559E+03    0.47827E-04   -0.62756E-05  7280   0.911E-02    0.969E-03
DAV:  10    -0.139921239467E+03    0.80920E-05   -0.46494E-05  6544   0.340E-02
  17 F= -.13992124E+03 E0= -.13992014E+03  d E =-.252391E-02
       N       E                     dE             d eps       ncg     rms          rms(c)
DAV:   1    -0.139919934847E+03    0.13127E-02   -0.78579E-01  6288   0.394E+00    0.114E-01
DAV:   2    -0.139921623205E+03   -0.16884E-02   -0.18221E-02  7064   0.538E-01    0.628E-02
DAV:   3    -0.139921535151E+03    0.88054E-04   -0.15867E-04  7528   0.678E-02    0.428E-02
DAV:   4    -0.139921470138E+03    0.65013E-04   -0.22581E-04  7456   0.932E-02    0.130E-02
DAV:   5    -0.139921473119E+03   -0.29815E-05   -0.94059E-05  6872   0.455E-02    0.138E-02
DAV:   6    -0.139921470246E+03    0.28733E-05   -0.14482E-05  4088   0.188E-02
  18 F= -.13992147E+03 E0= -.13992040E+03  d E =-.275469E-02
       N       E                     dE             d eps       ncg     rms          rms(c)
DAV:   1    -0.139921792969E+03   -0.31985E-03   -0.44225E-01  6288   0.299E+00    0.844E-02
DAV:   2    -0.139922726147E+03   -0.93318E-03   -0.10260E-02  7168   0.412E-01    0.488E-02
DAV:   3    -0.139922679589E+03    0.46559E-04   -0.11446E-04  7464   0.519E-02    0.345E-02
DAV:   4    -0.139922643818E+03    0.35771E-04   -0.10297E-04  6928   0.580E-02    0.127E-02
DAV:   5    -0.139922641064E+03    0.27543E-05   -0.43642E-05  6448   0.374E-02    0.113E-02
DAV:   6    -0.139922638520E+03    0.25444E-05   -0.19001E-05  4504   0.236E-02
  19 F= -.13992264E+03 E0= -.13992155E+03  d E =-.116827E-02
       N       E                     dE             d eps       ncg     rms          rms(c)
DAV:   1    -0.139916574193E+03    0.60669E-02   -0.39772E+00  6288   0.896E+00    0.261E-01
DAV:   2    -0.139925114502E+03   -0.85403E-02   -0.93812E-02  7144   0.124E+00    0.148E-01
DAV:   3    -0.139924700112E+03    0.41439E-03   -0.10175E-03  7440   0.152E-01    0.103E-01
DAV:   4    -0.139924421809E+03    0.27830E-03   -0.10329E-03  7208   0.171E-01    0.372E-02
DAV:   5    -0.139924417709E+03    0.41008E-05   -0.33466E-04  7256   0.919E-02    0.322E-02
DAV:   6    -0.139924404291E+03    0.13418E-04   -0.15708E-04  6800   0.641E-02    0.137E-02
DAV:   7    -0.139924399505E+03    0.47857E-05   -0.18529E-05  5208   0.303E-02
  20 F= -.13992440E+03 E0= -.13992325E+03  d E =-.292926E-02
       N       E                     dE             d eps       ncg     rms          rms(c)
DAV:   1    -0.139925124467E+03   -0.72018E-03   -0.44809E-01  6328   0.292E+00    0.879E-02
DAV:   2    -0.139925977148E+03   -0.85268E-03   -0.98376E-03  7248   0.408E-01    0.508E-02
DAV:   3    -0.139925921827E+03    0.55321E-04   -0.15136E-04  7472   0.634E-02    0.371E-02
DAV:   4    -0.139925877786E+03    0.44040E-04   -0.18357E-04  7200   0.701E-02    0.156E-02
DAV:   5    -0.139925873837E+03    0.39487E-05   -0.51039E-05  6928   0.394E-02    0.157E-02
DAV:   6    -0.139925870430E+03    0.34073E-05   -0.40449E-05  6344   0.310E-02
  21 F= -.13992587E+03 E0= -.13992469E+03  d E =-.147092E-02
       N       E                     dE             d eps       ncg     rms          rms(c)
DAV:   1    -0.139924978352E+03    0.89549E-03   -0.99699E-01  6312   0.437E+00    0.130E-01
DAV:   2    -0.139926869133E+03   -0.18908E-02   -0.21920E-02  7280   0.610E-01    0.776E-02
DAV:   3    -0.139926737560E+03    0.13157E-03   -0.33581E-04  7528   0.938E-02    0.566E-02
DAV:   4    -0.139926629307E+03    0.10825E-03   -0.48316E-04  7344   0.109E-01    0.250E-02
DAV:   5    -0.139926619674E+03    0.96336E-05   -0.11760E-04  7392   0.587E-02    0.261E-02
DAV:   6    -0.139926609648E+03    0.10026E-04   -0.87208E-05  6736   0.456E-02    0.971E-03
DAV:   7    -0.139926606271E+03    0.33768E-05   -0.14208E-05  5168   0.236E-02
  22 F= -.13992661E+03 E0= -.13992537E+03  d E =-.220677E-02
       N       E                     dE             d eps       ncg     rms          rms(c)
DAV:   1    -0.139926787084E+03   -0.17744E-03   -0.46586E-01  6320   0.301E+00    0.870E-02
DAV:   2    -0.139927729150E+03   -0.94207E-03   -0.10336E-02  7176   0.415E-01    0.499E-02
DAV:   3    -0.139927681318E+03    0.47833E-04   -0.12339E-04  7504   0.538E-02    0.350E-02
DAV:   4    -0.139927646926E+03    0.34392E-04   -0.16518E-04  6952   0.648E-02    0.146E-02
DAV:   5    -0.139927644108E+03    0.28181E-05   -0.37047E-05  6088   0.314E-02    0.143E-02
DAV:   6    -0.139927637493E+03    0.66147E-05   -0.36092E-05  6000   0.368E-02
  23 F= -.13992764E+03 E0= -.13992637E+03  d E =-.103122E-02
       N       E                     dE             d eps       ncg     rms          rms(c)
DAV:   1    -0.139922417966E+03    0.52261E-02   -0.33810E+00  6320   0.812E+00    0.235E-01
DAV:   2    -0.139929263115E+03   -0.68451E-02   -0.75206E-02  7184   0.112E+00    0.134E-01
DAV:   3    -0.139928922009E+03    0.34111E-03   -0.86313E-04  7512   0.140E-01    0.946E-02
DAV:   4    -0.139928682118E+03    0.23989E-03   -0.12201E-03  7360   0.178E-01    0.385E-02
DAV:   5    -0.139928674132E+03    0.79858E-05   -0.28374E-04  7272   0.818E-02    0.389E-02
DAV:   6    -0.139928639150E+03    0.34982E-04   -0.20395E-04  6880   0.796E-02    0.141E-02
DAV:   7    -0.139928628474E+03    0.10676E-04   -0.44033E-05  6080   0.405E-02    0.135E-02
DAV:   8    -0.139928606604E+03    0.21869E-04   -0.54727E-06  4384   0.334E-02    0.778E-03
DAV:   9    -0.139928574665E+03    0.31939E-04   -0.24132E-05  5672   0.570E-02    0.572E-03
DAV:  10    -0.139928521365E+03    0.53300E-04   -0.36657E-05  6528   0.135E-01    0.517E-03
DAV:  11    -0.139928491028E+03    0.30337E-04   -0.96427E-05  8272   0.149E-01    0.645E-03
DAV:  12    -0.139928496433E+03   -0.54051E-05   -0.11002E-04  6568   0.577E-02    0.476E-03
DAV:  13    -0.139928498473E+03   -0.20394E-05   -0.25912E-05  5328   0.189E-02
  24 F= -.13992850E+03 E0= -.13992712E+03  d E =-.189220E-02
       N       E                     dE             d eps       ncg     rms          rms(c)
DAV:   1    -0.139925932962E+03    0.25635E-02   -0.20740E+00  6592   0.639E+00    0.183E-01
DAV:   2    -0.139930318008E+03   -0.43850E-02   -0.47362E-02  7112   0.882E-01    0.109E-01
DAV:   3    -0.139930037793E+03    0.28021E-03   -0.41043E-04  7528   0.110E-01    0.749E-02
DAV:   4    -0.139929777453E+03    0.26034E-03   -0.73369E-04  7408   0.193E-01    0.209E-02
DAV:   5    -0.139929781832E+03   -0.43791E-05   -0.39879E-04  7056   0.890E-02    0.265E-02
DAV:   6    -0.139929770685E+03    0.11147E-04   -0.28424E-05  5704   0.225E-02    0.199E-02
DAV:   7    -0.139929743521E+03    0.27164E-04   -0.19519E-05  5256   0.268E-02    0.130E-02
DAV:   8    -0.139929693202E+03    0.50319E-04   -0.48197E-05  6880   0.618E-02    0.163E-02
DAV:   9    -0.139929660943E+03    0.32260E-04   -0.70806E-05  7064   0.753E-02    0.212E-02
DAV:  10    -0.139929633931E+03    0.27012E-04   -0.14731E-04  8304   0.110E-01    0.344E-02
DAV:  11    -0.139929581893E+03    0.52037E-04   -0.16387E-04  8864   0.130E-01    0.245E-02
DAV:  12    -0.139929562979E+03    0.18914E-04   -0.82164E-05  6736   0.576E-02    0.203E-02
DAV:  13    -0.139929527949E+03    0.35030E-04   -0.95309E-05  7256   0.926E-02    0.151E-02
DAV:  14    -0.139929521062E+03    0.68865E-05   -0.83639E-05  7392   0.117E-01
  25 F= -.13992952E+03 E0= -.13992809E+03  d E =-.102259E-02
       N       E                     dE             d eps       ncg     rms          rms(c)
DAV:   1    -0.139929300538E+03    0.22741E-03   -0.88694E-02  6600   0.133E+00    0.399E-02
DAV:   2    -0.139929492971E+03   -0.19243E-03   -0.20914E-03  7120   0.187E-01    0.230E-02
DAV:   3    -0.139929480914E+03    0.12057E-04   -0.19277E-05  5080   0.237E-02    0.155E-02
DAV:   4    -0.139929472051E+03    0.88633E-05   -0.36276E-05  6248   0.334E-02    0.574E-03
DAV:   5    -0.139929471552E+03    0.49903E-06   -0.10049E-05  4088   0.162E-02    0.499E-03
DAV:   6    -0.139929470542E+03    0.10098E-05   -0.38670E-06  4032   0.109E-02
  26 F= -.13992947E+03 E0= -.13992803E+03  d E =-.972069E-03
       N       E                     dE             d eps       ncg     rms          rms(c)
DAV:   1    -0.139929456780E+03    0.14772E-04   -0.20652E-02  6592   0.638E-01    0.185E-02
DAV:   2    -0.139929501042E+03   -0.44262E-04   -0.48334E-04  7120   0.897E-02    0.109E-02
DAV:   3    -0.139929498467E+03    0.25744E-05   -0.48202E-06  4000   0.113E-02    0.771E-03
DAV:   4    -0.139929496353E+03    0.21141E-05   -0.76612E-06  4080   0.166E-02    0.215E-03
DAV:   5    -0.139929496550E+03   -0.19630E-06   -0.35999E-06  3656   0.817E-03    0.305E-03
DAV:   6    -0.139929496483E+03    0.67186E-07   -0.43222E-07  3496   0.304E-03
  27 F= -.13992950E+03 E0= -.13992806E+03  d E =-.998010E-03
       N       E                     dE             d eps       ncg     rms          rms(c)
DAV:   1    -0.139929494591E+03    0.19590E-05   -0.60961E-03  6640   0.347E-01    0.107E-02
DAV:   2    -0.139929507770E+03   -0.13179E-04   -0.14378E-04  7064   0.487E-02    0.592E-03
DAV:   3    -0.139929506935E+03    0.83423E-06   -0.13119E-06  3608   0.681E-03    0.411E-03
DAV:   4    -0.139929506272E+03    0.66382E-06   -0.25426E-06  3832   0.114E-02    0.110E-03
DAV:   5    -0.139929506376E+03   -0.10479E-06   -0.16031E-06  3344   0.535E-03    0.179E-03
DAV:   6    -0.139929506388E+03   -0.12020E-07   -0.17893E-07  3328   0.163E-03
  28 F= -.13992951E+03 E0= -.13992807E+03  d E =-.100792E-02
       N       E                     dE             d eps       ncg     rms          rms(c)
DAV:   1    -0.139929701038E+03   -0.19466E-03   -0.16223E-01  6680   0.176E+00    0.512E-02
DAV:   2    -0.139929993520E+03   -0.29248E-03   -0.36311E-03  7272   0.252E-01    0.356E-02
DAV:   3    -0.139929965051E+03    0.28469E-04   -0.61650E-05  7024   0.401E-02    0.269E-02
DAV:   4    -0.139929943701E+03    0.21350E-04   -0.96287E-05  6776   0.485E-02    0.112E-02
DAV:   5    -0.139929941269E+03    0.24319E-05   -0.20302E-05  5120   0.243E-02    0.106E-02
DAV:   6    -0.139929938712E+03    0.25569E-05   -0.12632E-05  4424   0.219E-02
  29 F= -.13992994E+03 E0= -.13992848E+03  d E =-.432324E-03
