 vasp.5.3.5 31Mar14 (build Apr 08 2024 10:12:10) complex                        
  
 executed on             LinuxIFC date 2024.07.29  17:31:49
 running on    8 total cores
 distrk:  each k-point on    8 cores,    1 groups
 distr:  one band on NCORES_PER_BAND=   4 cores,    2 groups


--------------------------------------------------------------------------------------------------------


 INCAR:
 POTCAR:    PAW_PBE O 08Apr2002                   
 POTCAR:    PAW_PBE Mg 13Apr2007                  
 POTCAR:    PAW_PBE Al 04Jan2001                  
 POTCAR:    PAW_PBE O 08Apr2002                   
   VRHFIN =O: s2p4                                                              
   LEXCH  = PE                                                                  
   EATOM  =   432.3788 eV,   31.7789 Ry                                         
                                                                                
   TITEL  = PAW_PBE O 08Apr2002                                                 
   LULTRA =        F    use ultrasoft PP ?                                      
   IUNSCR =        1    unscreen: 0-lin 1-nonlin 2-no                           
   RPACOR =    1.200    partial core radius                                     
   POMASS =   16.000; ZVAL   =    6.000    mass and valenz                      
   RCORE  =    1.520    outmost cutoff radius                                   
   RWIGS  =    1.550; RWIGS  =    0.820    wigner-seitz radius (au A)           
   ENMAX  =  400.000; ENMIN  =  300.000 eV                                      
   ICORE  =        2    local potential                                         
   LCOR   =        T    correct aug charges                                     
   LPAW   =        T    paw PP                                                  
   EAUG   =  605.392                                                            
   DEXC   =    0.000                                                            
   RMAX   =    1.553    core radius for proj-oper                               
   RAUG   =    1.300    factor for augmentation sphere                          
   RDEP   =    1.550    radius for radial grids                                 
   RDEPT  =    1.329    core radius for aug-charge                              
                                                                                
   Atomic configuration                                                         
    4 entries                                                                   
     n  l   j            E        occ.                                          
     1  0  0.50      -514.6923   2.0000                                         
     2  0  0.50       -23.9615   2.0000                                         
     2  1  0.50        -9.0305   4.0000                                         
     3  2  1.50        -9.5241   0.0000                                         
   Description                                                                  
     l       E           TYP  RCUT    TYP  RCUT                                 
     0    -23.9615318     23  1.200                                             
     0     -9.5240782     23  1.200                                             
     1     -9.0304911     23  1.520                                             
     1      8.1634956     23  1.520                                             
     2     -9.5240782      7  1.500                                             
  local pseudopotential read in
  partial core-charges read in
  partial kinetic energy density read in
  kinetic energy density of atom read in
  atomic valenz-charges read in
  non local Contribution for L=           0  read in
    real space projection operators read in
  non local Contribution for L=           0  read in
    real space projection operators read in
  non local Contribution for L=           1  read in
    real space projection operators read in
  non local Contribution for L=           1  read in
    real space projection operators read in
    PAW grid and wavefunctions read in
 
   number of l-projection  operators is LMAX  =           4
   number of lm-projection operators is LMMAX =           8
 
 POTCAR:    PAW_PBE Mg 13Apr2007                  
   VRHFIN =Mg: s2p0                                                             
   LEXCH  = PE                                                                  
   EATOM  =    23.0369 eV,    1.6932 Ry                                         
                                                                                
   TITEL  = PAW_PBE Mg 13Apr2007                                                
   LULTRA =        F    use ultrasoft PP ?                                      
   IUNSCR =        1    unscreen: 0-lin 1-nonlin 2-no                           
   RPACOR =    1.500    partial core radius                                     
   POMASS =   24.305; ZVAL   =    2.000    mass and valenz                      
   RCORE  =    2.000    outmost cutoff radius                                   
   RWIGS  =    2.880; RWIGS  =    1.524    wigner-seitz radius (au A)           
   ENMAX  =  200.000; ENMIN  =  100.000 eV                                      
   RCLOC  =    1.506    cutoff for local pot                                    
   LCOR   =        T    correct aug charges                                     
   LPAW   =        T    paw PP                                                  
   EAUG   =  454.734                                                            
   DEXC   =    0.000                                                            
   RMAX   =    2.045    core radius for proj-oper                               
   RAUG   =    1.300    factor for augmentation sphere                          
   RDEP   =    2.025    radius for radial grids                                 
   RDEPT  =    1.942    core radius for aug-charge                              
                                                                                
   Atomic configuration                                                         
    6 entries                                                                   
     n  l   j            E        occ.                                          
     1  0  0.50     -1259.6230   2.0000                                         
     2  0  0.50       -79.8442   2.0000                                         
     2  1  1.50       -46.6121   6.0000                                         
     3  0  0.50        -4.7055   2.0000                                         
     3  1  0.50        -1.3660   0.0000                                         
     3  2  1.50        -1.3606   0.0000                                         
   Description                                                                  
     l       E           TYP  RCUT    TYP  RCUT                                 
     0     -4.7054661     23  2.000                                             
     0     27.2116520     23  2.000                                             
     1      1.3605826     23  2.000                                             
     1     27.2116520     23  2.000                                             
     2     -1.3605826     23  2.000                                             
  local pseudopotential read in
  partial core-charges read in
  partial kinetic energy density read in
  atomic valenz-charges read in
  non local Contribution for L=           0  read in
    real space projection operators read in
  non local Contribution for L=           0  read in
    real space projection operators read in
  non local Contribution for L=           1  read in
    real space projection operators read in
  non local Contribution for L=           1  read in
    real space projection operators read in
  non local Contribution for L=           2  read in
    real space projection operators read in
    PAW grid and wavefunctions read in
 
   number of l-projection  operators is LMAX  =           5
   number of lm-projection operators is LMMAX =          13
 
 POTCAR:    PAW_PBE Al 04Jan2001                  
   VRHFIN =Al: s2p1                                                             
   LEXCH  = PE                                                                  
   EATOM  =    53.5387 eV,    3.9350 Ry                                         
                                                                                
   TITEL  = PAW_PBE Al 04Jan2001                                                
   LULTRA =        F    use ultrasoft PP ?                                      
   IUNSCR =        1    unscreen: 0-lin 1-nonlin 2-no                           
   RPACOR =    1.500    partial core radius                                     
   POMASS =   26.981; ZVAL   =    3.000    mass and valenz                      
   RCORE  =    1.900    outmost cutoff radius                                   
   RWIGS  =    2.650; RWIGS  =    1.402    wigner-seitz radius (au A)           
   ENMAX  =  240.300; ENMIN  =  180.225 eV                                      
   ICORE  =        2    local potential                                         
   LCOR   =        T    correct aug charges                                     
   LPAW   =        T    paw PP                                                  
   EAUG   =  291.052                                                            
   DEXC   =    0.000                                                            
   RMAX   =    1.939    core radius for proj-oper                               
   RAUG   =    1.300    factor for augmentation sphere                          
   RDEP   =    1.966    radius for radial grids                                 
   RDEPT  =    1.856    core radius for aug-charge                              
                                                                                
   Atomic configuration                                                         
    6 entries                                                                   
     n  l   j            E        occ.                                          
     1  0  0.50     -1511.1048   2.0000                                         
     2  0  0.50      -108.1629   2.0000                                         
     2  1  1.50       -69.6402   6.0000                                         
     3  0  0.50        -7.7528   2.0000                                         
     3  1  1.50        -2.7121   1.0000                                         
     3  2  2.50        -2.7212   0.0000                                         
   Description                                                                  
     l       E           TYP  RCUT    TYP  RCUT                                 
     0     -7.7528455     23  1.900                                             
     0     -3.3096929     23  1.900                                             
     1     -2.7120682     23  1.900                                             
     1     13.6058260     23  1.900                                             
     2     -2.7211652      7  1.900                                             
  local pseudopotential read in
  partial core-charges read in
  partial kinetic energy density read in
  atomic valenz-charges read in
  non local Contribution for L=           0  read in
    real space projection operators read in
  non local Contribution for L=           0  read in
    real space projection operators read in
  non local Contribution for L=           1  read in
    real space projection operators read in
  non local Contribution for L=           1  read in
    real space projection operators read in
    PAW grid and wavefunctions read in
 
   number of l-projection  operators is LMAX  =           4
   number of lm-projection operators is LMMAX =           8
 

 ----------------------------------------------------------------------------- 
|                                                                             |
|  ADVICE TO THIS USER RUNNING 'VASP/VAMP'   (HEAR YOUR MASTER'S VOICE ...):  |
|                                                                             |
|      You have a (more or less) 'large supercell' and for larger cells       |
|      it might be more efficient to use real space projection opertators     |
|      So try LREAL= Auto  in the INCAR   file.                               |
|      Mind: At the moment your POTCAR file does not contain real space       |
|       projectors, and has to be modified,  BUT if you                       |
|      want to do an extremely  accurate calculation you might also keep the  |
|      reciprocal projection scheme          (i.e. LREAL=.FALSE.)             |
|                                                                             |
 ----------------------------------------------------------------------------- 

  PAW_PBE O 08Apr2002                   :
 energy of atom  1       EATOM= -432.3788
 kinetic energy error for atom=    0.0208 (will be added to EATOM!!)
  PAW_PBE Mg 13Apr2007                  :
 energy of atom  2       EATOM=  -23.0369
 kinetic energy error for atom=    0.0000 (will be added to EATOM!!)
  PAW_PBE Al 04Jan2001                  :
 energy of atom  3       EATOM=  -53.5387
 kinetic energy error for atom=    0.0002 (will be added to EATOM!!)
 
 
 POSCAR: OT hollow                               
  positions in direct lattice
  velocities in cartesian coordinates
 exchange correlation table for  LEXCH =        8
   RHO(1)=    0.500       N(1)  =     2000
   RHO(2)=  100.500       N(2)  =     4000
 


--------------------------------------------------------------------------------------------------------


 ion  position               nearest neighbor table
   1  0.507  0.493  0.253-  21 2.11  21 2.11  14 2.11  14 2.15  14 2.15
   2  0.507  0.493  0.435-  15 2.13  15 2.13  16 2.13  16 2.13  16 2.17  15 2.17
   3  0.493  0.507  0.617-  18 2.13  18 2.13  17 2.13  17 2.13  17 2.17  18 2.17
   4  0.493  0.507  0.799-  24 2.11  24 2.11  19 2.11  19 2.15  19 2.15
   5  0.849  0.151  0.314-  14 2.13  14 2.13  11 2.13  11 2.13  11 2.17  14 2.17
   6  0.178  0.822  0.374-  11 2.13  11 2.13  15 2.13  15 2.13  11 2.17  15 2.17
   7  0.836  0.164  0.496-  16 2.13  16 2.13  12 2.13  12 2.13  16 2.17  12 2.17
   8  0.164  0.836  0.556-  17 2.13  17 2.13  12 2.13  12 2.13  17 2.17  12 2.17
   9  0.822  0.178  0.678-  13 2.13  13 2.13  18 2.13  18 2.13  13 2.17  18 2.17
  10  0.151  0.849  0.738-  19 2.13  19 2.13  13 2.13  13 2.13  13 2.17  19 2.17
  11  0.513  0.487  0.344-   6 2.13   6 2.13   5 2.13   5 2.13   6 2.17   5 2.17  15 3.08  15 3.08
                            14 3.08  14 3.08  14 3.08  15 3.09
  12  0.500  0.500  0.526-   7 2.13   7 2.13   8 2.13   8 2.13   7 2.17   8 2.17  17 3.08  16 3.08
                            17 3.08  16 3.08  17 3.09  16 3.09
  13  0.487  0.513  0.708-   9 2.13   9 2.13  10 2.13  10 2.13   9 2.17  10 2.17  18 3.08  18 3.08
                            19 3.08  19 3.08  19 3.08  18 3.09
  14  0.186  0.814  0.283-   1 2.11   5 2.13   5 2.13   1 2.15   1 2.15   5 2.17  21 2.96  11 3.08
                            11 3.08  11 3.08
  15  0.842  0.158  0.405-   2 2.13   2 2.13   6 2.13   6 2.13   2 2.17   6 2.17  16 3.08  16 3.08
                            11 3.08  11 3.08  11 3.09  16 3.09
  16  0.171  0.829  0.465-   2 2.13   2 2.13   7 2.13   7 2.13   2 2.17   7 2.17  15 3.08  15 3.08
                            12 3.08  12 3.08  15 3.09  12 3.09
  17  0.829  0.171  0.587-   3 2.13   3 2.13   8 2.13   8 2.13   3 2.17   8 2.17  18 3.08  18 3.08
                            12 3.08  12 3.08  18 3.09  12 3.09
  18  0.158  0.842  0.647-   3 2.13   3 2.13   9 2.13   9 2.13   3 2.17   9 2.17  17 3.08  17 3.08
                            13 3.08  13 3.08  13 3.09  17 3.09
  19  0.814  0.186  0.769-   4 2.11  10 2.13  10 2.13   4 2.15   4 2.15  10 2.17  24 2.96  13 3.08
                            13 3.08  13 3.08
  20  0.000  1.000  0.026-  23 3.11  25 3.11  23 3.16  23 3.16  25 3.16  25 3.16
  21  0.990  0.010  0.217-   1 2.11   1 2.11  14 2.96  22 3.00  22 3.16  22 3.16
  22  0.697  0.303  0.156-  21 3.00  21 3.16  21 3.16  23 3.27  23 3.27
  23  0.318  0.682  0.088-  20 3.11  20 3.16  20 3.16  22 3.27  22 3.27
  24  0.010  0.990  0.835-   4 2.11   4 2.11  19 2.96  26 3.00  26 3.16  26 3.16
  25  0.682  0.318  0.964-  20 3.11  20 3.16  20 3.16  26 3.27  26 3.27
  26  0.303  0.697  0.896-  24 3.00  24 3.16  24 3.16  25 3.27  25 3.27
 
  LATTYP: Found a base centered monoclinic cell.
 ALAT       =     5.2353752010
 B/A-ratio  =     0.5612349741
 C/A-ratio  =     8.1078674092
 COS(beta)  =    -0.1057346205
  
  Lattice vectors:
  
 A1 = (  -2.5811541393,   1.5324138014,  -0.0027477724)
 A2 = (  -0.0365325771,   3.0015513009,  -0.0027477717)
 A3 = (   2.5954821263,  -4.4955056313, -42.1291290105)


Analysis of symmetry for initial positions (statically):
=====================================================================
 Subroutine PRICEL returns:
 Original cell was already a primitive cell.
 

 Routine SETGRP: Setting up the symmetry group for a 
 base centered monoclinic supercell.


 Subroutine GETGRP returns: Found  2 space group operations
 (whereof  2 operations were pure point group operations)
 out of a pool of  4 trial point group operations.


The static configuration has the point symmetry C_1h.


Analysis of symmetry for dynamics (positions and initial velocities):
=====================================================================
 Subroutine PRICEL returns:
 Original cell was already a primitive cell.
 

 Routine SETGRP: Setting up the symmetry group for a 
 base centered monoclinic supercell.


 Subroutine GETGRP returns: Found  2 space group operations
 (whereof  2 operations were pure point group operations)
 out of a pool of  4 trial point group operations.


The dynamic configuration has the point symmetry C_1h.


Analysis of constrained symmetry for selective dynamics:
=====================================================================
 Subroutine PRICEL returns:
 Original cell was already a primitive cell.
 

 Routine SETGRP: Setting up the symmetry group for a 
 base centered monoclinic supercell.


 Subroutine GETGRP returns: Found  2 space group operations
 (whereof  2 operations were pure point group operations)
 out of a pool of  4 trial point group operations.


The constrained configuration has the point symmetry C_1h.
 
 
 KPOINTS: K-Spacing Value to Generate K-Mesh: 0.02

Automatic generation of k-mesh.
Space group operators:
 irot       det(A)        alpha          n_x          n_y          n_z        tau_x        tau_y        tau_z
    1     1.000000     0.000000     1.000000     0.000000     0.000000     0.000000     0.000000     0.000000
    2    -1.000000   179.999999     0.866025     0.500000     0.000000     0.000000     0.000000     0.000000
 
 Subroutine IBZKPT returns following result:
 ===========================================
 
 Found     49 irreducible k-points:
 
 Following reciprocal coordinates:
            Coordinates               Weight
  0.000000  0.000000  0.000000      1.000000
  0.076923  0.000000  0.000000      4.000000
  0.153846  0.000000  0.000000      4.000000
  0.230769  0.000000  0.000000      4.000000
  0.307692  0.000000  0.000000      4.000000
  0.384615  0.000000  0.000000      4.000000
  0.461538  0.000000  0.000000      4.000000
  0.076923  0.076923 -0.000000      2.000000
  0.153846  0.076923  0.000000      4.000000
  0.230769  0.076923  0.000000      4.000000
  0.307692  0.076923  0.000000      4.000000
  0.384615  0.076923  0.000000      4.000000
  0.461538  0.076923 -0.000000      4.000000
 -0.461538  0.076923 -0.000000      4.000000
 -0.384615  0.076923  0.000000      4.000000
 -0.307692  0.076923 -0.000000      4.000000
 -0.230769  0.076923 -0.000000      4.000000
 -0.153846  0.076923  0.000000      4.000000
 -0.076923  0.076923 -0.000000      2.000000
  0.153846  0.153846 -0.000000      2.000000
  0.230769  0.153846 -0.000000      4.000000
  0.307692  0.153846  0.000000      4.000000
  0.384615  0.153846 -0.000000      4.000000
  0.461538  0.153846 -0.000000      4.000000
 -0.461538  0.153846 -0.000000      4.000000
 -0.384615  0.153846 -0.000000      4.000000
 -0.307692  0.153846 -0.000000      4.000000
 -0.230769  0.153846 -0.000000      4.000000
 -0.153846  0.153846 -0.000000      2.000000
  0.230769  0.230769 -0.000000      2.000000
  0.307692  0.230769  0.000000      4.000000
  0.384615  0.230769 -0.000000      4.000000
  0.461538  0.230769 -0.000000      4.000000
 -0.461538  0.230769 -0.000000      4.000000
 -0.384615  0.230769  0.000000      4.000000
 -0.307692  0.230769 -0.000000      4.000000
 -0.230769  0.230769 -0.000000      2.000000
  0.307692  0.307692 -0.000000      2.000000
  0.384615  0.307692 -0.000000      4.000000
  0.461538  0.307692  0.000000      4.000000
 -0.461538  0.307692 -0.000000      4.000000
 -0.384615  0.307692 -0.000000      4.000000
 -0.307692  0.307692 -0.000000      2.000000
  0.384615  0.384615 -0.000000      2.000000
  0.461538  0.384615  0.000000      4.000000
 -0.461538  0.384615 -0.000000      4.000000
 -0.384615  0.384615 -0.000000      2.000000
  0.461538  0.461538 -0.000000      2.000000
 -0.461538  0.461538 -0.000000      2.000000
 
 Following cartesian coordinates:
            Coordinates               Weight
  0.000000  0.000000  0.000000      1.000000
  0.030019  0.000365 -0.000015      4.000000
  0.060037  0.000731 -0.000031      4.000000
  0.090056  0.001096 -0.000046      4.000000
  0.120075  0.001461 -0.000062      4.000000
  0.150094  0.001827 -0.000077      4.000000
  0.180112  0.002192 -0.000093      4.000000
  0.045345  0.026180  0.000000      2.000000
  0.075363  0.026545 -0.000015      4.000000
  0.105382  0.026910 -0.000031      4.000000
  0.135401  0.027276 -0.000046      4.000000
  0.165419  0.027641 -0.000062      4.000000
  0.195438  0.028006 -0.000077      4.000000
 -0.164787  0.023622  0.000108      4.000000
 -0.134768  0.023988  0.000093      4.000000
 -0.104749  0.024353  0.000077      4.000000
 -0.074730  0.024718  0.000062      4.000000
 -0.044712  0.025084  0.000046      4.000000
 -0.014693  0.025449  0.000031      2.000000
  0.090689  0.052359  0.000000      2.000000
  0.120708  0.052725 -0.000015      4.000000
  0.150726  0.053090 -0.000031      4.000000
  0.180745  0.053455 -0.000046      4.000000
  0.210764  0.053821 -0.000062      4.000000
 -0.149461  0.049437  0.000124      4.000000
 -0.119442  0.049802  0.000108      4.000000
 -0.089423  0.050167  0.000093      4.000000
 -0.059405  0.050533  0.000077      4.000000
 -0.029386  0.050898  0.000062      2.000000
  0.136034  0.078539  0.000000      2.000000
  0.166052  0.078904 -0.000015      4.000000
  0.196071  0.079270 -0.000031      4.000000
  0.226090  0.079635 -0.000046      4.000000
 -0.134135  0.075251  0.000139      4.000000
 -0.104116  0.075616  0.000124      4.000000
 -0.074098  0.075982  0.000108      4.000000
 -0.044079  0.076347  0.000093      2.000000
  0.181378  0.104719  0.000000      2.000000
  0.211397  0.105084 -0.000015      4.000000
  0.241416  0.105449 -0.000031      4.000000
 -0.118809  0.101065  0.000155      4.000000
 -0.088791  0.101431  0.000139      4.000000
 -0.058772  0.101796  0.000124      2.000000
  0.226723  0.130898  0.000000      2.000000
  0.256741  0.131264 -0.000015      4.000000
 -0.103484  0.126880  0.000170      4.000000
 -0.073465  0.127245  0.000155      2.000000
  0.272067  0.157078  0.000000      2.000000
 -0.088158  0.152694  0.000186      2.000000
 


--------------------------------------------------------------------------------------------------------




 Dimension of arrays:
   k-points           NKPTS =     49   k-points in BZ     NKDIM =     49   number of bands    NBANDS=     64
   number of dos      NEDOS =    301   number of ions     NIONS =     26
   non local maximal  LDIM  =      5   non local SUM 2l+1 LMDIM =     13
   total plane-waves  NPLWV = 184320
   max r-space proj   IRMAX =      1   max aug-charges    IRDMAX= 193461
   dimension x,y,z NGX =    24 NGY =   24 NGZ =  320
   dimension x,y,z NGXF=    48 NGYF=   48 NGZF=  640
   support grid    NGXF=    96 NGYF=   96 NGZF= 1280
   ions per type =              10   9   7
 NGX,Y,Z   is equivalent  to a cutoff of  13.29, 13.29, 12.63 a.u.
 NGXF,Y,Z  is equivalent  to a cutoff of  26.58, 26.58, 25.25 a.u.


 I would recommend the setting:
   dimension x,y,z NGX =    22 NGY =   22 NGZ =  313
 SYSTEM =  unknown system                          
 POSCAR =  OT hollow                               

 Startparameter for this run:
   NWRITE =      2    write-flag & timer
   PREC   = accura    normal or accurate (medium, high low for compatibility)
   ISTART =      0    job   : 0-new  1-cont  2-samecut
   ICHARG =      2    charge: 1-file 2-atom 10-const
   ISPIN  =      1    spin polarized calculation?
   LNONCOLLINEAR =      F non collinear calculations
   LSORBIT =      F    spin-orbit coupling
   INIWAV =      1    electr: 0-lowe 1-rand  2-diag
   LASPH  =      F    aspherical Exc in radial PAW
   METAGGA=      F    non-selfconsistent MetaGGA calc.

 Electronic Relaxation 1
   ENCUT  =  520.0 eV  38.22 Ry    6.18 a.u.   5.58  5.58 78.34*2*pi/ulx,y,z
   ENINI  =  520.0     initial cutoff
   ENAUG  =  605.4 eV  augmentation charge cutoff
   NELM   =    100;   NELMIN=  6; NELMDL=  0     # of ELM steps 
   EDIFF  = 0.1E-04   stopping-criterion for ELM
   LREAL  =      F    real-space projection
   NLSPLINE    = F    spline interpolate recip. space projectors
   LCOMPAT=      F    compatible to vasp.4.4
   GGA_COMPAT  = T    GGA compatible to vasp.4.4-vasp.4.6
   LMAXPAW     = -100 max onsite density
   LMAXMIX     =    2 max onsite mixed and CHGCAR
   VOSKOWN=      0    Vosko Wilk Nusair interpolation
   ROPT   =    0.00000   0.00000   0.00000
 Ionic relaxation
   EDIFFG = -.2E-01   stopping-criterion for IOM
   NSW    =    500    number of steps for IOM
   NBLOCK =      1;   KBLOCK =    500    inner block; outer block 
   IBRION =      2    ionic relax: 0-MD 1-quasi-New 2-CG
   NFREE  =      1    steps in history (QN), initial steepest desc. (CG)
   ISIF   =      2    stress and relaxation
   IWAVPR =     11    prediction:  0-non 1-charg 2-wave 3-comb
   ISYM   =      2    0-nonsym 1-usesym 2-fastsym
   LCORR  =      T    Harris-Foulkes like correction to forces

   POTIM  = 0.5000    time-step for ionic-motion
   TEIN   =    0.0    initial temperature
   TEBEG  =    0.0;   TEEND  =   0.0 temperature during run
   SMASS  =  -3.00    Nose mass-parameter (am)
   estimated Nose-frequenzy (Omega)   =  0.10E-29 period in steps =****** mass=  -0.206E-27a.u.
   SCALEE = 1.0000    scale energy and forces
   NPACO  =    256;   APACO  = 16.0  distance and # of slots for P.C.
   PSTRESS=    0.0 pullay stress

  Mass of Ions in am
   POMASS =  16.00 24.30 26.98
  Ionic Valenz
   ZVAL   =   6.00  2.00  3.00
  Atomic Wigner-Seitz radii
   RWIGS  =  -1.00 -1.00 -1.00
  virtual crystal weights 
   VCA    =   1.00  1.00  1.00
   NELECT =      99.0000    total number of electrons
   NUPDOWN=      -1.0000    fix difference up-down

 DOS related values:
   EMIN   =  10.00;   EMAX   =-10.00  energy-range for DOS
   EFERMI =   0.00
   ISMEAR =     0;   SIGMA  =   0.05  broadening in eV -4-tet -1-fermi 0-gaus

 Electronic relaxation 2 (details)
   IALGO  =     38    algorithm
   LDIAG  =      T    sub-space diagonalisation (order eigenvalues)
   LSUBROT=      F    optimize rotation matrix (better conditioning)
   TURBO    =      0    0=normal 1=particle mesh
   IRESTART =      0    0=no restart 2=restart with 2 vectors
   NREBOOT  =      0    no. of reboots
   NMIN     =      0    reboot dimension
   EREF     =   0.00    reference energy to select bands
   IMIX   =      4    mixing-type and parameters
     AMIX     =   0.40;   BMIX     =  1.00
     AMIX_MAG =   1.60;   BMIX_MAG =  1.00
     AMIN     =   0.01
     WC   =   100.;   INIMIX=   1;  MIXPRE=   1;  MAXMIX= -45

 Intra band minimization:
   WEIMIN = 0.0010     energy-eigenvalue tresh-hold
   EBREAK =  0.39E-07  absolut break condition
   DEPER  =   0.30     relativ break condition  

   TIME   =   0.40     timestep for ELM

  volume/ion in A,a.u.               =      12.46        84.11
  Fermi-wavevector in a.u.,A,eV,Ry     =   1.102564  2.083543 16.539874  1.215646
  Thomas-Fermi vector in A             =   2.239008
 
 Write flags
   LWAVE  =      F    write WAVECAR
   LCHARG =      T    write CHGCAR
   LVTOT  =      F    write LOCPOT, total local potential
   LVHAR  =      F    write LOCPOT, Hartree potential only
   LELF   =      F    write electronic localiz. function (ELF)
   LORBIT =      0    0 simple, 1 ext, 2 COOP (PROOUT)


 Dipole corrections
   LMONO  =      F    monopole corrections only (constant potential shift)
   LDIPOL =      F    correct potential (dipole corrections)
   IDIPOL =      0    1-x, 2-y, 3-z, 4-all directions 
   EPSILON=  1.0000000 bulk dielectric constant

 Exchange correlation treatment:
   GGA     =    --    GGA type
   LEXCH   =     8    internal setting for exchange type
   VOSKOWN=      0    Vosko Wilk Nusair interpolation
   LHFCALC =     F    Hartree Fock is set to
   LHFONE  =     F    Hartree Fock one center treatment
   AEXX    =    0.0000 exact exchange contribution

 Linear response parameters
   LEPSILON=     F    determine dielectric tensor
   LRPA    =     F    only Hartree local field effects (RPA)
   LNABLA  =     F    use nabla operator in PAW spheres
   LVEL    =     F    velocity operator in full k-point grid
   LINTERFAST=   F  fast interpolation
   KINTER  =     0    interpolate to denser k-point grid
   CSHIFT  =0.1000    complex shift for real part using Kramers Kronig
   OMEGAMAX=  -1.0    maximum frequency
   DEG_THRESHOLD= 0.2000000E-02 threshold for treating states as degnerate
   RTIME   =    0.100 relaxation time in fs

 Orbital magnetization related:
   ORBITALMAG=     F  switch on orbital magnetization
   LCHIMAG   =     F  perturbation theory with respect to B field
   DQ        =  0.001000  dq finite difference perturbation B field



--------------------------------------------------------------------------------------------------------


 conjugate gradient relaxation of ions
   using selective dynamics as specified on POSCAR
 charge density and potential will be updated during run
 non-spin polarized calculation
 Variant of blocked Davidson
 Davidson routine will perform the subspace rotation
 perform sub-space diagonalisation
    after iterative eigenvector-optimisation
 modified Broyden-mixing scheme, WC =      100.0
 initial mixing is a Kerker type mixing with AMIX =  0.4000 and BMIX =      1.0000
 Hartree-type preconditioning will be used
 using additional bands           14
 reciprocal scheme for non local part
 use partial core corrections
 calculate Harris-corrections to forces 
   (improved forces if not selfconsistent)
 use gradient corrections 
 use of overlap-Matrix (Vanderbilt PP)
 Gauss-broadening in eV      SIGMA  =   0.05


--------------------------------------------------------------------------------------------------------


  energy-cutoff  :      520.00
  volume of cell :      324.08
      direct lattice vectors                 reciprocal lattice vectors
     2.581154139 -1.532413801  0.002747772     0.390243585  0.004749561 -0.000201320
    -0.036532577  3.001551301 -0.002747772     0.199235035  0.335586176  0.000201320
     0.022204590 -0.038459471 42.134624555    -0.000012456  0.000021575  0.023733476

  length of vectors
     3.001775525  3.001774874 42.134647958     0.390272539  0.390272624  0.023733489


 
 k-points in units of 2pi/SCALE and weight: K-Spacing Value to Generate K-Mesh: 0.02
   0.00000000  0.00000000  0.00000000       0.006
   0.03001874  0.00036535 -0.00001549       0.024
   0.06003747  0.00073070 -0.00003097       0.024
   0.09005621  0.00109605 -0.00004646       0.024
   0.12007495  0.00146140 -0.00006194       0.024
   0.15009369  0.00182675 -0.00007743       0.024
   0.18011242  0.00219211 -0.00009292       0.024
   0.04534451  0.02617967  0.00000000       0.012
   0.07536325  0.02654502 -0.00001549       0.024
   0.10538198  0.02691037 -0.00003097       0.024
   0.13540072  0.02727572 -0.00004646       0.024
   0.16541946  0.02764108 -0.00006194       0.024
   0.19543820  0.02800643 -0.00007743       0.024
  -0.16478665  0.02362222  0.00010840       0.024
  -0.13476791  0.02398757  0.00009292       0.024
  -0.10474918  0.02435292  0.00007743       0.024
  -0.07473044  0.02471827  0.00006194       0.024
  -0.04471170  0.02508362  0.00004646       0.024
  -0.01469297  0.02544897  0.00003097       0.012
   0.09068902  0.05235934  0.00000000       0.012
   0.12070776  0.05272469 -0.00001549       0.024
   0.15072649  0.05309005 -0.00003097       0.024
   0.18074523  0.05345540 -0.00004646       0.024
   0.21076397  0.05382075 -0.00006194       0.024
  -0.14946088  0.04943654  0.00012389       0.024
  -0.11944214  0.04980189  0.00010840       0.024
  -0.08942341  0.05016724  0.00009292       0.024
  -0.05940467  0.05053259  0.00007743       0.024
  -0.02938593  0.05089794  0.00006194       0.012
   0.13603353  0.07853902  0.00000000       0.012
   0.16605227  0.07890437 -0.00001549       0.024
   0.19607100  0.07926972 -0.00003097       0.024
   0.22608974  0.07963507 -0.00004646       0.024
  -0.13413511  0.07525086  0.00013938       0.024
  -0.10411637  0.07561621  0.00012389       0.024
  -0.07409763  0.07598156  0.00010840       0.024
  -0.04407890  0.07634691  0.00009292       0.012
   0.18137804  0.10471869  0.00000000       0.012
   0.21139677  0.10508404 -0.00001549       0.024
   0.24141551  0.10544939 -0.00003097       0.024
  -0.11880934  0.10106518  0.00015486       0.024
  -0.08879060  0.10143053  0.00013938       0.024
  -0.05877186  0.10179588  0.00012389       0.012
   0.22672255  0.13089836  0.00000000       0.012
   0.25674128  0.13126371 -0.00001549       0.024
  -0.10348356  0.12687950  0.00017035       0.024
  -0.07346483  0.12724485  0.00015486       0.012
   0.27206706  0.15707803  0.00000000       0.012
  -0.08815779  0.15269382  0.00018583       0.012
 
 k-points in reciprocal lattice and weights: K-Spacing Value to Generate K-Mesh: 0.02
   0.00000000  0.00000000  0.00000000       0.006
   0.07692308  0.00000000  0.00000000       0.024
   0.15384615  0.00000000  0.00000000       0.024
   0.23076923  0.00000000  0.00000000       0.024
   0.30769231  0.00000000  0.00000000       0.024
   0.38461538  0.00000000  0.00000000       0.024
   0.46153846  0.00000000  0.00000000       0.024
   0.07692308  0.07692308 -0.00000000       0.012
   0.15384615  0.07692308  0.00000000       0.024
   0.23076923  0.07692308  0.00000000       0.024
   0.30769231  0.07692308  0.00000000       0.024
   0.38461538  0.07692308  0.00000000       0.024
   0.46153846  0.07692308 -0.00000000       0.024
  -0.46153846  0.07692308 -0.00000000       0.024
  -0.38461538  0.07692308  0.00000000       0.024
  -0.30769231  0.07692308 -0.00000000       0.024
  -0.23076923  0.07692308 -0.00000000       0.024
  -0.15384615  0.07692308  0.00000000       0.024
  -0.07692308  0.07692308 -0.00000000       0.012
   0.15384615  0.15384615 -0.00000000       0.012
   0.23076923  0.15384615 -0.00000000       0.024
   0.30769231  0.15384615  0.00000000       0.024
   0.38461538  0.15384615 -0.00000000       0.024
   0.46153846  0.15384615 -0.00000000       0.024
  -0.46153846  0.15384615 -0.00000000       0.024
  -0.38461538  0.15384615 -0.00000000       0.024
  -0.30769231  0.15384615 -0.00000000       0.024
  -0.23076923  0.15384615 -0.00000000       0.024
  -0.15384615  0.15384615 -0.00000000       0.012
   0.23076923  0.23076923 -0.00000000       0.012
   0.30769231  0.23076923  0.00000000       0.024
   0.38461538  0.23076923 -0.00000000       0.024
   0.46153846  0.23076923 -0.00000000       0.024
  -0.46153846  0.23076923 -0.00000000       0.024
  -0.38461538  0.23076923  0.00000000       0.024
  -0.30769231  0.23076923 -0.00000000       0.024
  -0.23076923  0.23076923 -0.00000000       0.012
   0.30769231  0.30769231 -0.00000000       0.012
   0.38461538  0.30769231 -0.00000000       0.024
   0.46153846  0.30769231  0.00000000       0.024
  -0.46153846  0.30769231 -0.00000000       0.024
  -0.38461538  0.30769231 -0.00000000       0.024
  -0.30769231  0.30769231 -0.00000000       0.012
   0.38461538  0.38461538 -0.00000000       0.012
   0.46153846  0.38461538  0.00000000       0.024
  -0.46153846  0.38461538 -0.00000000       0.024
  -0.38461538  0.38461538 -0.00000000       0.012
   0.46153846  0.46153846 -0.00000000       0.012
  -0.46153846  0.46153846 -0.00000000       0.012
 
 position of ions in fractional coordinates (direct lattice) 
   0.50741064  0.49258936  0.25316193
   0.50659975  0.49340025  0.43497962
   0.49339886  0.50660114  0.61709500
   0.49258711  0.50741289  0.79891169
   0.84903425  0.15096575  0.31358390
   0.17779331  0.82220669  0.37429037
   0.83551225  0.16448775  0.49567340
   0.16448681  0.83551319  0.55640141
   0.82220449  0.17779551  0.67778397
   0.15096275  0.84903725  0.73849000
   0.51341643  0.48658357  0.34394603
   0.49999964  0.50000036  0.52603727
   0.48658122  0.51341878  0.70812802
   0.18552765  0.81447235  0.28325200
   0.84216674  0.15783326  0.40463834
   0.17105027  0.82894973  0.46532287
   0.82894864  0.17105136  0.58675166
   0.15783146  0.84216854  0.64743599
   0.81446979  0.18553021  0.76882188
   0.00000717  0.99999283  0.02603882
   0.99010980  0.00989020  0.21743277
   0.69739811  0.30260189  0.15621046
   0.31803062  0.68196938  0.08842164
   0.00988912  0.99011088  0.83464075
   0.68198047  0.31801953  0.96365507
   0.30260265  0.69739735  0.89586215
 
 position of ions in cartesian coordinates  (Angst):
   1.29733087  0.69123270 10.66692348
   1.29924539  0.68791665 18.32773930
   1.26873341  0.74076493 26.00103003
   1.27064568  0.73745279 33.66180356
   2.19293611 -0.86000065 13.21465783
   0.43718558  2.18104762 15.76881344
   2.16158297 -0.80569543 20.88685637
   0.40639703  2.23437493 23.44192053
   2.13079111 -0.75236237 28.55994383
   0.37503847  2.28868953 31.11408053
   1.31506798  0.66051113 14.49211054
   1.28399027  0.71433928 22.16438303
   1.25290830  0.76817482 29.83663472
   0.45541017  2.14948171 11.93298841
   2.17698094 -0.83236548 17.05116503
   0.42155576  2.20811925 19.60439672
   2.14642385 -0.77943907 24.72436850
   0.39099679  2.26104893 27.27759207
   2.11256556 -0.72079480 32.39574943
  -0.03593563  3.00051736  1.09438819
   2.56009269 -1.49593431  9.16414171
   1.79250578 -0.16643516  6.58295375
   0.79793533  1.55621091  3.72461264
   0.00788691  2.92461451 35.16458102
   1.77007619 -0.12758600 40.60424445
   0.77547861  1.59510707 37.74573045
 


--------------------------------------------------------------------------------------------------------


 k-point  1 :   0.0000 0.0000 0.0000  plane waves:    8853
 k-point  2 :   0.0769 0.0000 0.0000  plane waves:    8847
 k-point  3 :   0.1538 0.0000 0.0000  plane waves:    8799
 k-point  4 :   0.2308 0.0000 0.0000  plane waves:    8742
 k-point  5 :   0.3077 0.0000 0.0000  plane waves:    8740
 k-point  6 :   0.3846 0.0000 0.0000  plane waves:    8702
 k-point  7 :   0.4615 0.0000 0.0000  plane waves:    8655
 k-point  8 :   0.0769 0.0769-0.0000  plane waves:    8819
 k-point  9 :   0.1538 0.0769 0.0000  plane waves:    8762
 k-point 10 :   0.2308 0.0769 0.0000  plane waves:    8734
 k-point 11 :   0.3077 0.0769 0.0000  plane waves:    8700
 k-point 12 :   0.3846 0.0769 0.0000  plane waves:    8662
 k-point 13 :   0.4615 0.0769-0.0000  plane waves:    8653
 k-point 14 :  -0.4615 0.0769-0.0000  plane waves:    8699
 k-point 15 :  -0.3846 0.0769 0.0000  plane waves:    8727
 k-point 16 :  -0.3077 0.0769-0.0000  plane waves:    8764
 k-point 17 :  -0.2308 0.0769-0.0000  plane waves:    8784
 k-point 18 :  -0.1538 0.0769 0.0000  plane waves:    8832
 k-point 19 :  -0.0769 0.0769-0.0000  plane waves:    8842
 k-point 20 :   0.1538 0.1538-0.0000  plane waves:    8703
 k-point 21 :   0.2308 0.1538-0.0000  plane waves:    8724
 k-point 22 :   0.3077 0.1538 0.0000  plane waves:    8686
 k-point 23 :   0.3846 0.1538-0.0000  plane waves:    8662
 k-point 24 :   0.4615 0.1538-0.0000  plane waves:    8651
 k-point 25 :  -0.4615 0.1538-0.0000  plane waves:    8718
 k-point 26 :  -0.3846 0.1538-0.0000  plane waves:    8746
 k-point 27 :  -0.3077 0.1538-0.0000  plane waves:    8754
 k-point 28 :  -0.2308 0.1538-0.0000  plane waves:    8815
 k-point 29 :  -0.1538 0.1538-0.0000  plane waves:    8839
 k-point 30 :   0.2308 0.2308-0.0000  plane waves:    8699
 k-point 31 :   0.3077 0.2308 0.0000  plane waves:    8686
 k-point 32 :   0.3846 0.2308-0.0000  plane waves:    8689
 k-point 33 :   0.4615 0.2308-0.0000  plane waves:    8696
 k-point 34 :  -0.4615 0.2308-0.0000  plane waves:    8729
 k-point 35 :  -0.3846 0.2308 0.0000  plane waves:    8719
 k-point 36 :  -0.3077 0.2308-0.0000  plane waves:    8746
 k-point 37 :  -0.2308 0.2308-0.0000  plane waves:    8811
 k-point 38 :   0.3077 0.3077-0.0000  plane waves:    8700
 k-point 39 :   0.3846 0.3077-0.0000  plane waves:    8725
 k-point 40 :   0.4615 0.3077 0.0000  plane waves:    8713
 k-point 41 :  -0.4615 0.3077-0.0000  plane waves:    8726
 k-point 42 :  -0.3846 0.3077-0.0000  plane waves:    8692
 k-point 43 :  -0.3077 0.3077-0.0000  plane waves:    8718
 k-point 44 :   0.3846 0.3846-0.0000  plane waves:    8718
 k-point 45 :   0.4615 0.3846 0.0000  plane waves:    8686
 k-point 46 :  -0.4615 0.3846-0.0000  plane waves:    8672
 k-point 47 :  -0.3846 0.3846-0.0000  plane waves:    8675
 k-point 48 :   0.4615 0.4615-0.0000  plane waves:    8678
 k-point 49 :  -0.4615 0.4615-0.0000  plane waves:    8634

 maximum and minimum number of plane-waves per node :      2222     2147

 maximum number of plane-waves:      8853
 maximum index in each direction: 
   IXMAX=    6   IYMAX=    5   IZMAX=   78
   IXMIN=   -6   IYMIN=   -6   IZMIN=  -78

 WARNING: aliasing errors must be expected set NGX to  26 to avoid them
 NGY is ok and might be reduce to  24
 NGZ is ok and might be reduce to 314
 aliasing errors are usually negligible using standard VASP settings
 and one can safely disregard these warnings

 parallel 3D FFT for wavefunctions:
    minimum data exchange during FFTs selected (reduces bandwidth)
 parallel 3D FFT for charge:
    minimum data exchange during FFTs selected (reduces bandwidth)


 total amount of memory used by VASP on root node   198907. kBytes
========================================================================

   base      :      30000. kBytes
   nonl-proj :      34611. kBytes
   fftplans  :      55173. kBytes
   grid      :      22118. kBytes
   one-center:         56. kBytes
   wavefun   :      56949. kBytes
 
     INWAV:  cpu time    0.00: real time    0.00
 Broyden mixing: mesh for mixing (old mesh)
   NGX = 11   NGY = 11   NGZ =157
  (NGX  = 48   NGY  = 48   NGZ  =640)
  gives a total of  18997 points

 initial charge density was supplied:
 charge density of overlapping atoms calculated
 number of electron      99.0000000 magnetization 
 keeping initial charge density in first step


--------------------------------------------------------------------------------------------------------


 Maximum index for augmentation-charges        23456 (set IRDMAX)


--------------------------------------------------------------------------------------------------------


 First call to EWALD:  gamma=   0.258
 Maximum number of real-space cells 7x 7x 1
 Maximum number of reciprocal cells 1x 1x14

 FEWALD executed in parallel
    FEWALD:  cpu time    0.00: real time    0.00


----------------------------------------- Iteration    1(   1)  ---------------------------------------


    POTLOK:  cpu time    0.11: real time    0.11
    SETDIJ:  cpu time    0.11: real time    0.11
     EDDAV:  cpu time    9.35: real time    9.39
       DOS:  cpu time    0.00: real time    0.00
    --------------------------------------------
      LOOP:  cpu time    9.57: real time    9.61

 eigenvalue-minimisations  :  6304
 total energy-change (2. order) : 0.5073483E+03  (-0.4415156E+04)
 number of electron      99.0000000 magnetization 
 augmentation part       99.0000000 magnetization 

 Free energy of the ion-electron system (eV)
  ---------------------------------------------------
  alpha Z        PSCENC =       130.22087412
  Ewald energy   TEWEN  =     13124.33743779
  -Hartree energ DENC   =    -18275.25802386
  -exchange      EXHF   =         0.00000000
  -V(xc)+E(xc)   XCENC  =      -343.49401198
  PAW double counting   =      4516.65612620    -3844.19644948
  entropy T*S    EENTRO =        -0.00751776
  eigenvalues    EBANDS =       293.40903120
  atomic energy  EATOM  =      4905.68083858
  ---------------------------------------------------
  free energy    TOTEN  =       507.34830481 eV

  energy without entropy =      507.35582257  energy(sigma->0) =      507.35206369


--------------------------------------------------------------------------------------------------------




----------------------------------------- Iteration    1(   2)  ---------------------------------------


     EDDAV:  cpu time   11.65: real time   11.66
       DOS:  cpu time    0.00: real time    0.00
    --------------------------------------------
      LOOP:  cpu time   11.66: real time   11.67

 eigenvalue-minimisations  :  8096
 total energy-change (2. order) :-0.6059521E+03  (-0.5758606E+03)
 number of electron      99.0000000 magnetization 
 augmentation part       99.0000000 magnetization 

 Free energy of the ion-electron system (eV)
  ---------------------------------------------------
  alpha Z        PSCENC =       130.22087412
  Ewald energy   TEWEN  =     13124.33743779
  -Hartree energ DENC   =    -18275.25802386
  -exchange      EXHF   =         0.00000000
  -V(xc)+E(xc)   XCENC  =      -343.49401198
  PAW double counting   =      4516.65612620    -3844.19644948
  entropy T*S    EENTRO =        -0.00319885
  eigenvalues    EBANDS =      -312.54742057
  atomic energy  EATOM  =      4905.68083858
  ---------------------------------------------------
  free energy    TOTEN  =       -98.60382806 eV

  energy without entropy =      -98.60062920  energy(sigma->0) =      -98.60222863


--------------------------------------------------------------------------------------------------------




----------------------------------------- Iteration    1(   3)  ---------------------------------------


     EDDAV:  cpu time   10.78: real time   10.79
       DOS:  cpu time    0.00: real time    0.00
    --------------------------------------------
      LOOP:  cpu time   10.79: real time   10.80

 eigenvalue-minimisations  :  7392
 total energy-change (2. order) :-0.5632049E+02  (-0.5599984E+02)
 number of electron      99.0000000 magnetization 
 augmentation part       99.0000000 magnetization 

 Free energy of the ion-electron system (eV)
  ---------------------------------------------------
  alpha Z        PSCENC =       130.22087412
  Ewald energy   TEWEN  =     13124.33743779
  -Hartree energ DENC   =    -18275.25802386
  -exchange      EXHF   =         0.00000000
  -V(xc)+E(xc)   XCENC  =      -343.49401198
  PAW double counting   =      4516.65612620    -3844.19644948
  entropy T*S    EENTRO =        -0.00391689
  eigenvalues    EBANDS =      -368.86719708
  atomic energy  EATOM  =      4905.68083858
  ---------------------------------------------------
  free energy    TOTEN  =      -154.92432260 eV

  energy without entropy =     -154.92040571  energy(sigma->0) =     -154.92236415


--------------------------------------------------------------------------------------------------------




----------------------------------------- Iteration    1(   4)  ---------------------------------------


     EDDAV:  cpu time   10.78: real time   10.79
       DOS:  cpu time    0.00: real time    0.00
    --------------------------------------------
      LOOP:  cpu time   10.78: real time   10.79

 eigenvalue-minimisations  :  7392
 total energy-change (2. order) :-0.7240728E+00  (-0.7226503E+00)
 number of electron      99.0000000 magnetization 
 augmentation part       99.0000000 magnetization 

 Free energy of the ion-electron system (eV)
  ---------------------------------------------------
  alpha Z        PSCENC =       130.22087412
  Ewald energy   TEWEN  =     13124.33743779
  -Hartree energ DENC   =    -18275.25802386
  -exchange      EXHF   =         0.00000000
  -V(xc)+E(xc)   XCENC  =      -343.49401198
  PAW double counting   =      4516.65612620    -3844.19644948
  entropy T*S    EENTRO =        -0.00435626
  eigenvalues    EBANDS =      -369.59083049
  atomic energy  EATOM  =      4905.68083858
  ---------------------------------------------------
  free energy    TOTEN  =      -155.64839537 eV

  energy without entropy =     -155.64403912  energy(sigma->0) =     -155.64621725


--------------------------------------------------------------------------------------------------------




----------------------------------------- Iteration    1(   5)  ---------------------------------------


     EDDAV:  cpu time   10.79: real time   10.80
       DOS:  cpu time    0.00: real time    0.00
    CHARGE:  cpu time    0.73: real time    0.73
    MIXING:  cpu time    0.00: real time    0.00
    --------------------------------------------
      LOOP:  cpu time   11.53: real time   11.54

 eigenvalue-minimisations  :  7408
 total energy-change (2. order) :-0.1072890E-01  (-0.1072473E-01)
 number of electron      99.0000001 magnetization 
 augmentation part        7.6920193 magnetization 

 Broyden mixing:
  rms(total) = 0.23000E+01    rms(broyden)= 0.22995E+01
  rms(prec ) = 0.23568E+01
  weight for this iteration     100.00

 Free energy of the ion-electron system (eV)
  ---------------------------------------------------
  alpha Z        PSCENC =       130.22087412
  Ewald energy   TEWEN  =     13124.33743779
  -Hartree energ DENC   =    -18275.25802386
  -exchange      EXHF   =         0.00000000
  -V(xc)+E(xc)   XCENC  =      -343.49401198
  PAW double counting   =      4516.65612620    -3844.19644948
  entropy T*S    EENTRO =        -0.00437050
  eigenvalues    EBANDS =      -369.60154514
  atomic energy  EATOM  =      4905.68083858
  ---------------------------------------------------
  free energy    TOTEN  =      -155.65912428 eV

  energy without entropy =     -155.65475377  energy(sigma->0) =     -155.65693902


--------------------------------------------------------------------------------------------------------




----------------------------------------- Iteration    1(   6)  ---------------------------------------


    POTLOK:  cpu time    0.11: real time    0.11
    SETDIJ:  cpu time    0.11: real time    0.11
     EDDAV:  cpu time   11.09: real time   11.10
       DOS:  cpu time    0.00: real time    0.00
    CHARGE:  cpu time    0.72: real time    0.72
    MIXING:  cpu time    0.01: real time    0.01
    --------------------------------------------
      LOOP:  cpu time   12.04: real time   12.05

 eigenvalue-minimisations  :  7664
 total energy-change (2. order) : 0.1556502E+02  (-0.8901718E+01)
 number of electron      99.0000001 magnetization 
 augmentation part        6.1914533 magnetization 

 Broyden mixing:
  rms(total) = 0.78932E+00    rms(broyden)= 0.78836E+00
  rms(prec ) = 0.79902E+00
  weight for this iteration     100.00

 eigenvalues of (default mixing * dielectric matrix)
  average eigenvalue GAMMA=   0.8333
  0.8333

 Free energy of the ion-electron system (eV)
  ---------------------------------------------------
  alpha Z        PSCENC =       130.22087412
  Ewald energy   TEWEN  =     13124.33743779
  -Hartree energ DENC   =    -18469.45665459
  -exchange      EXHF   =         0.00000000
  -V(xc)+E(xc)   XCENC  =      -330.26240552
  PAW double counting   =      5331.67336935    -4662.58101328
  entropy T*S    EENTRO =        -0.00200894
  eigenvalues    EBANDS =      -169.70454172
  atomic energy  EATOM  =      4905.68083858
  ---------------------------------------------------
  free energy    TOTEN  =      -140.09410420 eV

  energy without entropy =     -140.09209526  energy(sigma->0) =     -140.09309973


--------------------------------------------------------------------------------------------------------




----------------------------------------- Iteration    1(   7)  ---------------------------------------


    POTLOK:  cpu time    0.10: real time    0.10
    SETDIJ:  cpu time    0.11: real time    0.11
     EDDAV:  cpu time   10.51: real time   10.52
       DOS:  cpu time    0.00: real time    0.00
    CHARGE:  cpu time    0.72: real time    0.72
    MIXING:  cpu time    0.01: real time    0.01
    --------------------------------------------
      LOOP:  cpu time   11.46: real time   11.47

 eigenvalue-minimisations  :  7136
 total energy-change (2. order) : 0.7321661E-01  (-0.2771678E+00)
 number of electron      99.0000001 magnetization 
 augmentation part        6.2244664 magnetization 

 Broyden mixing:
  rms(total) = 0.48417E+00    rms(broyden)= 0.48416E+00
  rms(prec ) = 0.48918E+00
  weight for this iteration     100.00

 eigenvalues of (default mixing * dielectric matrix)
  average eigenvalue GAMMA=   1.5239
  0.9922  2.0557

 Free energy of the ion-electron system (eV)
  ---------------------------------------------------
  alpha Z        PSCENC =       130.22087412
  Ewald energy   TEWEN  =     13124.33743779
  -Hartree energ DENC   =    -18463.86659623
  -exchange      EXHF   =         0.00000000
  -V(xc)+E(xc)   XCENC  =      -330.07879770
  PAW double counting   =      5618.42750383    -4948.82950520
  entropy T*S    EENTRO =        -0.00155378
  eigenvalues    EBANDS =      -175.91108899
  atomic energy  EATOM  =      4905.68083858
  ---------------------------------------------------
  free energy    TOTEN  =      -140.02088758 eV

  energy without entropy =     -140.01933380  energy(sigma->0) =     -140.02011069


--------------------------------------------------------------------------------------------------------




----------------------------------------- Iteration    1(   8)  ---------------------------------------


    POTLOK:  cpu time    0.10: real time    0.10
    SETDIJ:  cpu time    0.11: real time    0.11
     EDDAV:  cpu time   10.40: real time   10.41
       DOS:  cpu time    0.00: real time    0.00
    CHARGE:  cpu time    0.72: real time    0.72
    MIXING:  cpu time    0.00: real time    0.00
    --------------------------------------------
      LOOP:  cpu time   11.34: real time   11.35

 eigenvalue-minimisations  :  7408
 total energy-change (2. order) : 0.6998528E-01  (-0.9091085E-01)
 number of electron      99.0000001 magnetization 
 augmentation part        6.3070471 magnetization 

 Broyden mixing:
  rms(total) = 0.13717E+00    rms(broyden)= 0.13708E+00
  rms(prec ) = 0.14360E+00
  weight for this iteration     100.00

 eigenvalues of (default mixing * dielectric matrix)
  average eigenvalue GAMMA=   1.3255
  2.3100  0.9031  0.7635

 Free energy of the ion-electron system (eV)
  ---------------------------------------------------
  alpha Z        PSCENC =       130.22087412
  Ewald energy   TEWEN  =     13124.33743779
  -Hartree energ DENC   =    -18465.81139277
  -exchange      EXHF   =         0.00000000
  -V(xc)+E(xc)   XCENC  =      -329.10073202
  PAW double counting   =      6019.37531912    -5349.37433174
  entropy T*S    EENTRO =        -0.00188391
  eigenvalues    EBANDS =      -175.27703148
  atomic energy  EATOM  =      4905.68083858
  ---------------------------------------------------
  free energy    TOTEN  =      -139.95090230 eV

  energy without entropy =     -139.94901839  energy(sigma->0) =     -139.94996034


--------------------------------------------------------------------------------------------------------




----------------------------------------- Iteration    1(   9)  ---------------------------------------


    POTLOK:  cpu time    0.10: real time    0.10
    SETDIJ:  cpu time    0.10: real time    0.10
     EDDAV:  cpu time   10.52: real time   10.53
       DOS:  cpu time    0.00: real time    0.00
    CHARGE:  cpu time    0.71: real time    0.71
    MIXING:  cpu time    0.00: real time    0.00
    --------------------------------------------
      LOOP:  cpu time   11.43: real time   11.45

 eigenvalue-minimisations  :  7288
 total energy-change (2. order) : 0.3959807E-01  (-0.1628118E-01)
 number of electron      99.0000001 magnetization 
 augmentation part        6.2707340 magnetization 

 Broyden mixing:
  rms(total) = 0.65471E-01    rms(broyden)= 0.65462E-01
  rms(prec ) = 0.66782E-01
  weight for this iteration     100.00

 eigenvalues of (default mixing * dielectric matrix)
  average eigenvalue GAMMA=   1.4477
  2.4661  1.4808  0.9220  0.9220

 Free energy of the ion-electron system (eV)
  ---------------------------------------------------
  alpha Z        PSCENC =       130.22087412
  Ewald energy   TEWEN  =     13124.33743779
  -Hartree energ DENC   =    -18471.73288645
  -exchange      EXHF   =         0.00000000
  -V(xc)+E(xc)   XCENC  =      -328.50028122
  PAW double counting   =      6081.70170388    -5411.75850645
  entropy T*S    EENTRO =        -0.00149161
  eigenvalues    EBANDS =      -169.85899288
  atomic energy  EATOM  =      4905.68083858
  ---------------------------------------------------
  free energy    TOTEN  =      -139.91130423 eV

  energy without entropy =     -139.90981262  energy(sigma->0) =     -139.91055842


--------------------------------------------------------------------------------------------------------




----------------------------------------- Iteration    1(  10)  ---------------------------------------


    POTLOK:  cpu time    0.10: real time    0.10
    SETDIJ:  cpu time    0.10: real time    0.10
     EDDAV:  cpu time   10.50: real time   10.51
       DOS:  cpu time    0.00: real time    0.00
    CHARGE:  cpu time    0.71: real time    0.72
    MIXING:  cpu time    0.01: real time    0.01
    --------------------------------------------
      LOOP:  cpu time   11.43: real time   11.44

 eigenvalue-minimisations  :  7096
 total energy-change (2. order) :-0.3612330E-02  (-0.1385958E-01)
 number of electron      99.0000001 magnetization 
 augmentation part        6.2415808 magnetization 

 Broyden mixing:
  rms(total) = 0.47421E-01    rms(broyden)= 0.47371E-01
  rms(prec ) = 0.48971E-01
  weight for this iteration     100.00

 eigenvalues of (default mixing * dielectric matrix)
  average eigenvalue GAMMA=   1.2972
  2.5177  1.3905  0.9821  0.7978  0.7978

 Free energy of the ion-electron system (eV)
  ---------------------------------------------------
  alpha Z        PSCENC =       130.22087412
  Ewald energy   TEWEN  =     13124.33743779
  -Hartree energ DENC   =    -18474.63722942
  -exchange      EXHF   =         0.00000000
  -V(xc)+E(xc)   XCENC  =      -328.19205090
  PAW double counting   =      6068.38662200    -5398.48207480
  entropy T*S    EENTRO =        -0.00136455
  eigenvalues    EBANDS =      -167.22796939
  atomic energy  EATOM  =      4905.68083858
  ---------------------------------------------------
  free energy    TOTEN  =      -139.91491656 eV

  energy without entropy =     -139.91355201  energy(sigma->0) =     -139.91423429


--------------------------------------------------------------------------------------------------------




----------------------------------------- Iteration    1(  11)  ---------------------------------------


    POTLOK:  cpu time    0.10: real time    0.10
    SETDIJ:  cpu time    0.10: real time    0.10
     EDDAV:  cpu time   11.45: real time   11.46
       DOS:  cpu time    0.00: real time    0.00
    CHARGE:  cpu time    0.71: real time    0.71
    MIXING:  cpu time    0.01: real time    0.01
    --------------------------------------------
      LOOP:  cpu time   12.37: real time   12.38

 eigenvalue-minimisations  :  7968
 total energy-change (2. order) : 0.3617059E-02  (-0.1280449E-02)
 number of electron      99.0000001 magnetization 
 augmentation part        6.2491993 magnetization 

 Broyden mixing:
  rms(total) = 0.25942E-01    rms(broyden)= 0.25941E-01
  rms(prec ) = 0.26410E-01
  weight for this iteration     100.00

 eigenvalues of (default mixing * dielectric matrix)
  average eigenvalue GAMMA=   1.3602
  2.5889  1.8000  0.9176  0.9176  0.9684  0.9684

 Free energy of the ion-electron system (eV)
  ---------------------------------------------------
  alpha Z        PSCENC =       130.22087412
  Ewald energy   TEWEN  =     13124.33743779
  -Hartree energ DENC   =    -18473.97750918
  -exchange      EXHF   =         0.00000000
  -V(xc)+E(xc)   XCENC  =      -328.21375710
  PAW double counting   =      6062.84036464    -5392.92879566
  entropy T*S    EENTRO =        -0.00147199
  eigenvalues    EBANDS =      -167.86928070
  atomic energy  EATOM  =      4905.68083858
  ---------------------------------------------------
  free energy    TOTEN  =      -139.91129950 eV

  energy without entropy =     -139.90982751  energy(sigma->0) =     -139.91056350


--------------------------------------------------------------------------------------------------------




----------------------------------------- Iteration    1(  12)  ---------------------------------------


    POTLOK:  cpu time    0.10: real time    0.10
    SETDIJ:  cpu time    0.10: real time    0.10
     EDDAV:  cpu time   10.73: real time   10.74
       DOS:  cpu time    0.00: real time    0.00
    CHARGE:  cpu time    0.71: real time    0.71
    MIXING:  cpu time    0.00: real time    0.00
    --------------------------------------------
      LOOP:  cpu time   11.65: real time   11.66

 eigenvalue-minimisations  :  7288
 total energy-change (2. order) : 0.5980546E-04  (-0.1192040E-02)
 number of electron      99.0000001 magnetization 
 augmentation part        6.2505875 magnetization 

 Broyden mixing:
  rms(total) = 0.10386E-01    rms(broyden)= 0.10369E-01
  rms(prec ) = 0.10590E-01
  weight for this iteration     100.00

 eigenvalues of (default mixing * dielectric matrix)
  average eigenvalue GAMMA=   1.3542
  2.7413  2.4184  0.9093  0.9093  0.9325  0.9325  0.6360

 Free energy of the ion-electron system (eV)
  ---------------------------------------------------
  alpha Z        PSCENC =       130.22087412
  Ewald energy   TEWEN  =     13124.33743779
  -Hartree energ DENC   =    -18474.03373327
  -exchange      EXHF   =         0.00000000
  -V(xc)+E(xc)   XCENC  =      -328.18255582
  PAW double counting   =      6046.79125643    -5376.89005882
  entropy T*S    EENTRO =        -0.00149725
  eigenvalues    EBANDS =      -167.83380146
  atomic energy  EATOM  =      4905.68083858
  ---------------------------------------------------
  free energy    TOTEN  =      -139.91123969 eV

  energy without entropy =     -139.90974245  energy(sigma->0) =     -139.91049107


--------------------------------------------------------------------------------------------------------




----------------------------------------- Iteration    1(  13)  ---------------------------------------


    POTLOK:  cpu time    0.10: real time    0.10
    SETDIJ:  cpu time    0.11: real time    0.11
     EDDAV:  cpu time   10.84: real time   10.85
       DOS:  cpu time    0.00: real time    0.00
    CHARGE:  cpu time    0.72: real time    0.72
    MIXING:  cpu time    0.01: real time    0.01
    --------------------------------------------
      LOOP:  cpu time   11.79: real time   11.80

 eigenvalue-minimisations  :  7392
 total energy-change (2. order) :-0.2612960E-04  (-0.1142028E-03)
 number of electron      99.0000001 magnetization 
 augmentation part        6.2527142 magnetization 

 Broyden mixing:
  rms(total) = 0.63956E-02    rms(broyden)= 0.63947E-02
  rms(prec ) = 0.65302E-02
  weight for this iteration     100.00

 eigenvalues of (default mixing * dielectric matrix)
  average eigenvalue GAMMA=   1.3500
  2.8664  2.4608  0.9102  0.9102  1.0188  0.9498  0.9498  0.7340

 Free energy of the ion-electron system (eV)
  ---------------------------------------------------
  alpha Z        PSCENC =       130.22087412
  Ewald energy   TEWEN  =     13124.33743779
  -Hartree energ DENC   =    -18473.72840639
  -exchange      EXHF   =         0.00000000
  -V(xc)+E(xc)   XCENC  =      -328.18816481
  PAW double counting   =      6032.41092575    -5362.51010368
  entropy T*S    EENTRO =        -0.00151759
  eigenvalues    EBANDS =      -168.13314960
  atomic energy  EATOM  =      4905.68083858
  ---------------------------------------------------
  free energy    TOTEN  =      -139.91126582 eV

  energy without entropy =     -139.90974824  energy(sigma->0) =     -139.91050703


--------------------------------------------------------------------------------------------------------




----------------------------------------- Iteration    1(  14)  ---------------------------------------


    POTLOK:  cpu time    0.10: real time    0.10
    SETDIJ:  cpu time    0.11: real time    0.11
     EDDAV:  cpu time   10.82: real time   10.83
       DOS:  cpu time    0.00: real time    0.00
    CHARGE:  cpu time    0.71: real time    0.71
    MIXING:  cpu time    0.01: real time    0.01
    --------------------------------------------
      LOOP:  cpu time   11.75: real time   11.76

 eigenvalue-minimisations  :  7416
 total energy-change (2. order) : 0.5159153E-04  (-0.4266311E-04)
 number of electron      99.0000001 magnetization 
 augmentation part        6.2537864 magnetization 

 Broyden mixing:
  rms(total) = 0.24873E-02    rms(broyden)= 0.24853E-02
  rms(prec ) = 0.25757E-02
  weight for this iteration     100.00

 eigenvalues of (default mixing * dielectric matrix)
  average eigenvalue GAMMA=   1.3024
  2.8839  2.4911  0.9452  0.9452  0.9957  0.9957  0.7547  0.8550  0.8550

 Free energy of the ion-electron system (eV)
  ---------------------------------------------------
  alpha Z        PSCENC =       130.22087412
  Ewald energy   TEWEN  =     13124.33743779
  -Hartree energ DENC   =    -18473.63166414
  -exchange      EXHF   =         0.00000000
  -V(xc)+E(xc)   XCENC  =      -328.19079856
  PAW double counting   =      6029.78461410    -5359.88202398
  entropy T*S    EENTRO =        -0.00151647
  eigenvalues    EBANDS =      -168.22897567
  atomic energy  EATOM  =      4905.68083858
  ---------------------------------------------------
  free energy    TOTEN  =      -139.91121423 eV

  energy without entropy =     -139.90969776  energy(sigma->0) =     -139.91045600


--------------------------------------------------------------------------------------------------------




----------------------------------------- Iteration    1(  15)  ---------------------------------------


    POTLOK:  cpu time    0.10: real time    0.10
    SETDIJ:  cpu time    0.10: real time    0.10
     EDDAV:  cpu time   10.02: real time   10.03
       DOS:  cpu time    0.00: real time    0.00
    CHARGE:  cpu time    0.71: real time    0.71
    MIXING:  cpu time    0.01: real time    0.01
    --------------------------------------------
      LOOP:  cpu time   10.94: real time   10.96

 eigenvalue-minimisations  :  7136
 total energy-change (2. order) : 0.8865498E-05  (-0.1030973E-04)
 number of electron      99.0000001 magnetization 
 augmentation part        6.2531309 magnetization 

 Broyden mixing:
  rms(total) = 0.69376E-03    rms(broyden)= 0.69245E-03
  rms(prec ) = 0.83463E-03
  weight for this iteration     100.00

 eigenvalues of (default mixing * dielectric matrix)
  average eigenvalue GAMMA=   1.3540
  2.8476  2.4732  1.6910  0.9352  0.9352  0.9584  0.9584  0.9974  0.9974  0.7461

 Free energy of the ion-electron system (eV)
  ---------------------------------------------------
  alpha Z        PSCENC =       130.22087412
  Ewald energy   TEWEN  =     13124.33743779
  -Hartree energ DENC   =    -18473.65690113
  -exchange      EXHF   =         0.00000000
  -V(xc)+E(xc)   XCENC  =      -328.18865069
  PAW double counting   =      6029.71761561    -5359.81545755
  entropy T*S    EENTRO =        -0.00151467
  eigenvalues    EBANDS =      -168.20544743
  atomic energy  EATOM  =      4905.68083858
  ---------------------------------------------------
  free energy    TOTEN  =      -139.91120537 eV

  energy without entropy =     -139.90969070  energy(sigma->0) =     -139.91044803


--------------------------------------------------------------------------------------------------------




----------------------------------------- Iteration    1(  16)  ---------------------------------------


    POTLOK:  cpu time    0.10: real time    0.10
    SETDIJ:  cpu time    0.10: real time    0.10
     EDDAV:  cpu time    7.91: real time    7.92
       DOS:  cpu time    0.00: real time    0.00
    --------------------------------------------
      LOOP:  cpu time    8.11: real time    8.12

 eigenvalue-minimisations  :  4576
 total energy-change (2. order) : 0.6278929E-05  (-0.1160251E-05)
 number of electron      99.0000001 magnetization 
 augmentation part        6.2531309 magnetization 

 Free energy of the ion-electron system (eV)
  ---------------------------------------------------
  alpha Z        PSCENC =       130.22087412
  Ewald energy   TEWEN  =     13124.33743779
  -Hartree energ DENC   =    -18473.64085273
  -exchange      EXHF   =         0.00000000
  -V(xc)+E(xc)   XCENC  =      -328.18920910
  PAW double counting   =      6030.16932438    -5360.26619907
  entropy T*S    EENTRO =        -0.00151492
  eigenvalues    EBANDS =      -168.22189815
  atomic energy  EATOM  =      4905.68083858
  ---------------------------------------------------
  free energy    TOTEN  =      -139.91119909 eV

  energy without entropy =     -139.90968417  energy(sigma->0) =     -139.91044163


--------------------------------------------------------------------------------------------------------




 average (electrostatic) potential at core
  the test charge radii are     0.7215  1.0714  1.0406
  (the norm of the test charge is              1.0000)
       1 -70.2807       2 -70.0096       3 -70.0095       4 -70.2808       5 -70.0036
       6 -70.0013       7 -70.0123       8 -70.0123       9 -70.0012      10 -70.0036
      11 -35.6673      12 -35.6843      13 -35.6672      14 -35.6882      15 -35.6714
      16 -35.6788      17 -35.6788      18 -35.6713      19 -35.6882      20 -74.5710
      21 -75.1757      22 -74.6651      23 -74.6271      24 -75.1757      25 -74.6270
      26 -74.6650
 
 
 
 E-fermi :   6.2930     XC(G=0): -10.2762     alpha+bet :-12.3610


 k-point     1 :       0.0000    0.0000    0.0000
  band No.  band energies     occupation 
      1     -14.2648      2.00000
      2     -14.2387      2.00000
      3     -14.1758      2.00000
      4     -14.0695      2.00000
      5     -13.9308      2.00000
      6     -13.7742      2.00000
      7     -13.6110      2.00000
      8     -13.4562      2.00000
      9     -13.3279      2.00000
     10     -13.2480      2.00000
     11      -3.3293      2.00000
     12      -3.1688      2.00000
     13      -2.9472      2.00000
     14      -2.2756      2.00000
     15      -1.8185      2.00000
     16      -1.6073      2.00000
     17      -1.5099      2.00000
     18      -1.0381      2.00000
     19      -0.9093      2.00000
     20      -0.2387      2.00000
     21      -0.0813      2.00000
     22       0.5388      2.00000
     23       0.9178      2.00000
     24       1.6491      2.00000
     25       1.8188      2.00000
     26       2.2039      2.00000
     27       2.2040      2.00000
     28       2.2977      2.00000
     29       2.3392      2.00000
     30       2.3482      2.00000
     31       2.4001      2.00000
     32       2.4384      2.00000
     33       2.4756      2.00000
     34       2.4891      2.00000
     35       2.5390      2.00000
     36       2.5593      2.00000
     37       2.5635      2.00000
     38       2.6399      2.00000
     39       2.6507      2.00000
     40       2.7246      2.00000
     41       2.7298      2.00000
     42       2.7917      2.00000
     43       2.8046      2.00000
     44       2.8525      2.00000
     45       2.8528      2.00000
     46       2.8690      2.00000
     47       2.9068      2.00000
     48       3.8961      2.00000
     49       5.4444      2.00000
     50       6.6875      0.00000
     51       7.1047      0.00000
     52       7.7144      0.00000
     53       7.8917      0.00000
     54       8.6228      0.00000
     55       8.8914      0.00000
     56       9.6601      0.00000
     57       9.7042      0.00000
     58      10.2143      0.00000
     59      10.4125      0.00000
     60      10.5836      0.00000
     61      10.9671      0.00000
     62      12.6043      0.00000
     63      13.8715      0.00000
     64      14.0863      0.00000

 k-point     2 :       0.0769    0.0000    0.0000
  band No.  band energies     occupation 
      1     -14.2104      2.00000
      2     -14.1856      2.00000
      3     -14.1242      2.00000
      4     -14.0203      2.00000
      5     -13.8849      2.00000
      6     -13.7322      2.00000
      7     -13.5733      2.00000
      8     -13.4227      2.00000
      9     -13.2980      2.00000
     10     -13.2206      2.00000
     11      -3.2000      2.00000
     12      -3.0481      2.00000
     13      -2.8274      2.00000
     14      -2.1576      2.00000
     15      -1.7256      2.00000
     16      -1.5151      2.00000
     17      -1.4279      2.00000
     18      -0.9519      2.00000
     19      -0.8530      2.00000
     20      -0.2115      2.00000
     21      -0.0121      2.00000
     22       0.5562      2.00000
     23       0.8854      2.00000
     24       1.5483      2.00000
     25       1.8088      2.00000
     26       1.9744      2.00000
     27       2.0128      2.00000
     28       2.1511      2.00000
     29       2.2016      2.00000
     30       2.2692      2.00000
     31       2.3100      2.00000
     32       2.3172      2.00000
     33       2.3465      2.00000
     34       2.3689      2.00000
     35       2.4208      2.00000
     36       2.4315      2.00000
     37       2.4498      2.00000
     38       2.5238      2.00000
     39       2.5350      2.00000
     40       2.5742      2.00000
     41       2.6212      2.00000
     42       2.6610      2.00000
     43       2.6754      2.00000
     44       2.7266      2.00000
     45       2.7592      2.00000
     46       2.8067      2.00000
     47       2.8190      2.00000
     48       4.0365      2.00000
     49       5.6175      2.00000
     50       6.9133      0.00000
     51       7.4392      0.00000
     52       7.9732      0.00000
     53       8.1363      0.00000
     54       8.8333      0.00000
     55       9.1046      0.00000
     56       9.8754      0.00000
     57       9.9244      0.00000
     58      10.4621      0.00000
     59      10.6715      0.00000
     60      10.8655      0.00000
     61      11.1601      0.00000
     62      12.6948      0.00000
     63      13.7870      0.00000
     64      14.0041      0.00000

 k-point     3 :       0.1538    0.0000    0.0000
  band No.  band energies     occupation 
      1     -14.0551      2.00000
      2     -14.0337      2.00000
      3     -13.9769      2.00000
      4     -13.8800      2.00000
      5     -13.7542      2.00000
      6     -13.6131      2.00000
      7     -13.4669      2.00000
      8     -13.3287      2.00000
      9     -13.2147      2.00000
     10     -13.1447      2.00000
     11      -2.8170      2.00000
     12      -2.6940      2.00000
     13      -2.4729      2.00000
     14      -1.8084      2.00000
     15      -1.4640      2.00000
     16      -1.2414      2.00000
     17      -1.2023      2.00000
     18      -0.7167      2.00000
     19      -0.7003      2.00000
     20      -0.1598      2.00000
     21       0.0862      2.00000
     22       0.6344      2.00000
     23       0.6675      2.00000
     24       1.0926      2.00000
     25       1.3336      2.00000
     26       1.5204      2.00000
     27       1.5666      2.00000
     28       1.5806      2.00000
     29       1.6948      2.00000
     30       1.7124      2.00000
     31       1.8803      2.00000
     32       1.9840      2.00000
     33       2.1456      2.00000
     34       2.1634      2.00000
     35       2.2016      2.00000
     36       2.2550      2.00000
     37       2.2697      2.00000
     38       2.3107      2.00000
     39       2.3351      2.00000
     40       2.3599      2.00000
     41       2.4159      2.00000
     42       2.4995      2.00000
     43       2.5726      2.00000
     44       2.6250      2.00000
     45       2.6705      2.00000
     46       2.6876      2.00000
     47       2.8983      2.00000
     48       4.3918      2.00000
     49       6.0353      2.00000
     50       7.4318      0.00000
     51       8.2109      0.00000
     52       8.6040      0.00000
     53       8.7457      0.00000
     54       9.3372      0.00000
     55       9.6328      0.00000
     56      10.3780      0.00000
     57      10.4757      0.00000
     58      11.0441      0.00000
     59      11.2924      0.00000
     60      11.5623      0.00000
     61      11.6876      0.00000
     62      12.1615      0.00000
     63      12.3659      0.00000
     64      12.5102      0.00000

 k-point     4 :       0.2308    0.0000    0.0000
  band No.  band energies     occupation 
      1     -13.8217      2.00000
      2     -13.8063      2.00000
      3     -13.7562      2.00000
      4     -13.6707      2.00000
      5     -13.5609      2.00000
      6     -13.4387      2.00000
      7     -13.3128      2.00000
      8     -13.1943      2.00000
      9     -13.0972      2.00000
     10     -13.0386      2.00000
     11      -2.2089      2.00000
     12      -2.1418      2.00000
     13      -1.8960      2.00000
     14      -1.2448      2.00000
     15      -1.0887      2.00000
     16      -0.9245      2.00000
     17      -0.8169      2.00000
     18      -0.5551      2.00000
     19      -0.4817      2.00000
     20      -0.1540      2.00000
     21      -0.0582      2.00000
     22       0.1395      2.00000
     23       0.3356      2.00000
     24       0.5577      2.00000
     25       0.7322      2.00000
     26       0.7980      2.00000
     27       0.9028      2.00000
     28       0.9426      2.00000
     29       1.2140      2.00000
     30       1.2556      2.00000
     31       1.5348      2.00000
     32       1.7322      2.00000
     33       1.9131      2.00000
     34       1.9896      2.00000
     35       2.0289      2.00000
     36       2.0734      2.00000
     37       2.0911      2.00000
     38       2.1625      2.00000
     39       2.2057      2.00000
     40       2.2498      2.00000
     41       2.3333      2.00000
     42       2.4022      2.00000
     43       2.4623      2.00000
     44       2.4955      2.00000
     45       2.5284      2.00000
     46       2.6587      2.00000
     47       3.3060      2.00000
     48       4.9444      2.00000
     49       6.6206      0.00000
     50       8.0629      0.00000
     51       9.0899      0.00000
     52       9.2855      0.00000
     53       9.4674      0.00000
     54       9.6616      0.00000
     55       9.7714      0.00000
     56      10.0688      0.00000
     57      10.0910      0.00000
     58      10.2611      0.00000
     59      10.7938      0.00000
     60      10.9061      0.00000
     61      11.1848      0.00000
     62      11.6744      0.00000
[...]
 k-point    47 :      -0.3846    0.3846   -0.0000
  band No.  band energies     occupation 
      1     -13.5106      2.00000
      2     -13.5105      2.00000
      3     -13.3809      2.00000
      4     -13.3364      2.00000
      5     -13.2750      2.00000
      6     -13.2036      2.00000
      7     -13.1301      2.00000
      8     -13.0627      2.00000
      9     -13.0058      2.00000
     10     -12.9667      2.00000
     11      -1.3884      2.00000
     12      -1.3437      2.00000
     13      -1.2540      2.00000
     14      -1.1404      2.00000
     15      -1.0406      2.00000
     16      -1.0242      2.00000
     17      -0.9010      2.00000
     18      -0.8406      2.00000
     19      -0.7720      2.00000
     20      -0.6676      2.00000
     21      -0.3993      2.00000
     22      -0.2811      2.00000
     23       0.0367      2.00000
     24       0.2052      2.00000
     25       0.5656      2.00000
     26       0.7086      2.00000
     27       0.9176      2.00000
     28       1.0960      2.00000
     29       1.2611      2.00000
     30       1.3628      2.00000
     31       1.4464      2.00000
     32       1.5517      2.00000
     33       1.5518      2.00000
     34       1.6286      2.00000
     35       1.7428      2.00000
     36       1.8074      2.00000
     37       1.8569      2.00000
     38       1.9276      2.00000
     39       1.9562      2.00000
     40       2.0132      2.00000
     41       2.1040      2.00000
     42       2.1891      2.00000
     43       2.2617      2.00000
     44       2.3108      2.00000
     45       2.8859      2.00000
     46       4.0618      2.00000
     47       4.6111      2.00000
     48       4.8023      2.00000
     49       5.1104      2.00000
     50       5.4706      2.00000
     51       6.1684      2.00000
     52       6.7149      0.00000
     53       7.4147      0.00000
     54       8.1791      0.00000
     55       8.2895      0.00000
     56       8.9313      0.00000
     57       9.5169      0.00000
     58      10.2667      0.00000
     59      10.3958      0.00000
     60      10.7009      0.00000
     61      10.9030      0.00000
     62      11.2265      0.00000
     63      11.5978      0.00000
     64      11.7063      0.00000

 k-point    48 :       0.4615    0.4615   -0.0000
  band No.  band energies     occupation 
      1     -13.3539      2.00000
      2     -13.3538      2.00000
      3     -13.1515      2.00000
      4     -13.1356      2.00000
      5     -13.1108      2.00000
      6     -13.0786      2.00000
      7     -13.0439      2.00000
      8     -13.0107      2.00000
      9     -12.9807      2.00000
     10     -12.9595      2.00000
     11      -1.6509      2.00000
     12      -1.5719      2.00000
     13      -1.4399      2.00000
     14      -1.2644      2.00000
     15      -1.1735      2.00000
     16      -1.1174      2.00000
     17      -1.0787      2.00000
     18      -1.0294      2.00000
     19      -0.9459      2.00000
     20      -0.9405      2.00000
     21       0.0761      2.00000
     22       0.0813      2.00000
     23       0.7371      2.00000
     24       0.7821      2.00000
     25       0.9203      2.00000
     26       0.9852      2.00000
     27       1.1619      2.00000
     28       1.1638      2.00000
     29       1.2831      2.00000
     30       1.3555      2.00000
     31       1.5464      2.00000
     32       1.5528      2.00000
     33       1.6249      2.00000
     34       1.6975      2.00000
     35       1.8091      2.00000
     36       1.8105      2.00000
     37       1.9211      2.00000
     38       1.9972      2.00000
     39       2.0659      2.00000
     40       2.0809      2.00000
     41       2.2312      2.00000
     42       2.2689      2.00000
     43       2.6111      2.00000
     44       2.8015      2.00000
     45       2.8714      2.00000
     46       3.0142      2.00000
     47       3.6113      2.00000
     48       3.6212      2.00000
     49       4.5888      2.00000
     50       5.2528      2.00000
     51       5.6078      2.00000
     52       6.3817      0.22718
     53       6.5145      0.00000
     54       7.0030      0.00000
     55       8.3118      0.00000
     56       8.8699      0.00000
     57       9.6275      0.00000
     58      10.3359      0.00000
     59      10.5792      0.00000
     60      10.6005      0.00000
     61      10.8239      0.00000
     62      11.0031      0.00000
     63      11.0720      0.00000
     64      11.2588      0.00000

 k-point    49 :      -0.4615    0.4615   -0.0000
  band No.  band energies     occupation 
      1     -13.3886      2.00000
      2     -13.3885      2.00000
      3     -13.2003      2.00000
      4     -13.1786      2.00000
      5     -13.1463      2.00000
      6     -13.1062      2.00000
      7     -13.0638      2.00000
      8     -13.0241      2.00000
      9     -12.9892      2.00000
     10     -12.9647      2.00000
     11      -1.6752      2.00000
     12      -1.5974      2.00000
     13      -1.4667      2.00000
     14      -1.2930      2.00000
     15      -1.2115      2.00000
     16      -1.1548      2.00000
     17      -1.1097      2.00000
     18      -1.0550      2.00000
     19      -0.9746      2.00000
     20      -0.9549      2.00000
     21      -0.0169      2.00000
     22      -0.0034      2.00000
     23       0.5748      2.00000
     24       0.8364      2.00000
     25       1.0067      2.00000
     26       1.0415      2.00000
     27       1.1686      2.00000
     28       1.3023      2.00000
     29       1.3978      2.00000
     30       1.4905      2.00000
     31       1.4906      2.00000
     32       1.6118      2.00000
     33       1.7442      2.00000
     34       1.7937      2.00000
     35       1.8642      2.00000
     36       1.8645      2.00000
     37       1.9105      2.00000
     38       1.9501      2.00000
     39       2.0409      2.00000
     40       2.1261      2.00000
     41       2.1617      2.00000
     42       2.1988      2.00000
     43       2.2480      2.00000
     44       2.7891      2.00000
     45       3.0121      2.00000
     46       3.3962      2.00000
     47       3.5968      2.00000
     48       4.0497      2.00000
     49       4.2686      2.00000
     50       5.2262      2.00000
     51       5.5353      2.00000
     52       6.0728      2.00000
     53       6.7705      0.00000
     54       7.3261      0.00000
     55       7.8263      0.00000
     56       9.1340      0.00000
     57       9.3615      0.00000
     58      10.1924      0.00000
     59      10.4685      0.00000
     60      10.5576      0.00000
     61      10.9408      0.00000
     62      11.2874      0.00000
     63      11.4601      0.00000
     64      11.6546      0.00000


--------------------------------------------------------------------------------------------------------


 soft charge-density along one line, spin component           1
         0         1         2         3         4         5         6         7         8         9
 total charge-density along one line
 
 pseudopotential strength for first ion, spin component:           1
 12.209   0.000 -14.858   0.000  -0.001   0.000  -0.001   0.000   0.001   0.000   0.001   0.000   0.001   0.000  -0.001   0.000
-14.858   0.000  18.101   0.000   0.001   0.000   0.001   0.000  -0.001   0.000  -0.002   0.000  -0.001   0.000   0.001   0.000
 -0.001   0.000   0.001   0.000  -8.358   0.000   0.002   0.000  -0.014   0.000  10.016   0.000  -0.003   0.000   0.019   0.000
 -0.001   0.000   0.001   0.000   0.002   0.000  -8.382   0.000  -0.001   0.000  -0.003   0.000  10.049   0.000   0.002   0.000
  0.001   0.000  -0.001   0.000  -0.014   0.000  -0.001   0.000  -8.374   0.000   0.019   0.000   0.002   0.000  10.038   0.000
  0.001   0.000  -0.002   0.000  10.016   0.000  -0.003   0.000   0.019   0.000 -11.845   0.000   0.004   0.000  -0.026   0.000
  0.001   0.000  -0.001   0.000  -0.003   0.000  10.049   0.000   0.002   0.000   0.004   0.000 -11.890   0.000  -0.002   0.000
 -0.001   0.000   0.001   0.000   0.019   0.000   0.002   0.000  10.038   0.000  -0.026   0.000  -0.002   0.000 -11.875   0.000
 total augmentation occupancy for first ion, spin component:           1
  2.557   0.343   0.006   0.014  -0.003   0.002  -0.003  -0.001
  0.343   0.084   0.003   0.001  -0.002   0.000  -0.010  -0.000
  0.006   0.003   2.096   0.003   0.003   0.228  -0.002   0.018
  0.014   0.001   0.003   2.104  -0.002  -0.002   0.257   0.001
 -0.003  -0.002   0.003  -0.002   2.100   0.018   0.001   0.249
  0.002   0.000   0.228  -0.002   0.018   0.029  -0.000   0.004
 -0.003  -0.010  -0.002   0.257   0.001  -0.000   0.038   0.000
 -0.001  -0.000   0.018   0.001   0.249   0.004   0.000   0.034


------------------------ aborting loop because EDIFF is reached ----------------------------------------


    CHARGE:  cpu time    0.72: real time    0.72
    FORLOC:  cpu time    0.03: real time    0.03
    FORNL :  cpu time    6.23: real time    6.23
    STRESS:  cpu time    7.14: real time    7.15
    FORCOR:  cpu time    0.14: real time    0.14
    FORHAR:  cpu time    0.06: real time    0.06
    MIXING:  cpu time    0.00: real time    0.00
    OFIELD:  cpu time    0.00: real time    0.00

  FORCE on cell =-STRESS in cart. coord.  units (eV):
  Direction    XX          YY          ZZ          XY          YZ          ZX
  --------------------------------------------------------------------------------------
  Alpha Z   130.22087   130.22087   130.22087
  Ewald   16732.60374 16678.22672-19351.54327    47.09207   -50.50471    29.15876
  Hartree 18466.55687 18452.73036-17516.11821    11.97402   -29.46429    17.01126
  E(xc)    -412.90199  -412.95434  -412.35251     0.04533     0.14215    -0.08207
  Local  -36419.44160-36355.65629 35651.91477   -55.23938    78.06088   -45.06842
  n-local   -59.60225   -68.35225   -66.87757    -1.67414    -0.08741     3.24927
  augment    59.72290    59.94452    58.91221    -0.19196     0.16930    -0.09793
  Kinetic  1505.99642  1499.23396  1484.62925    -6.87754     3.45162    -0.63604
  Fock        0.00000     0.00000     0.00000     0.00000     0.00000     0.00000
  -------------------------------------------------------------------------------------
  Total      -6.36694    -7.08455   -21.21446     0.62147    -0.20651     0.11923
  in kB     -31.47696   -35.02467  -104.88029     3.07243    -1.02096     0.58945
  external pressure =      -57.13 kB  Pullay stress =        0.00 kB


 VOLUME and BASIS-vectors are now :
 -----------------------------------------------------------------------------
  energy-cutoff  :      520.00
  volume of cell :      324.08
      direct lattice vectors                 reciprocal lattice vectors
     2.581154139 -1.532413801  0.002747772     0.390243585  0.004749561 -0.000201320
    -0.036532577  3.001551301 -0.002747772     0.199235035  0.335586176  0.000201320
     0.022204590 -0.038459471 42.134624555    -0.000012456  0.000021575  0.023733476

  length of vectors
     3.001775525  3.001774874 42.134647958     0.390272539  0.390272624  0.023733489


 FORCES acting on ions
    electron-ion (+dipol)            ewald-force                    non-local-force                 convergence-correction
 -----------------------------------------------------------------------------------------------
   -.133E+01 0.231E+01 0.129E+04   0.156E+01 -.270E+01 -.129E+04   -.223E+00 0.387E+00 0.268E+00   0.476E-03 -.824E-03 0.157E-01
   -.226E+00 0.391E+00 0.433E+03   0.225E+00 -.390E+00 -.433E+03   0.591E-03 -.102E-02 -.338E-01   -.952E-04 0.165E-03 0.253E-01
   0.226E+00 -.391E+00 -.433E+03   -.225E+00 0.390E+00 0.433E+03   -.596E-03 0.103E-02 0.341E-01   0.969E-04 -.168E-03 -.260E-01
   0.133E+01 -.231E+01 -.129E+04   -.156E+01 0.270E+01 0.129E+04   0.223E+00 -.386E+00 -.268E+00   -.477E-03 0.826E-03 -.153E-01
   -.427E+00 0.739E+00 0.101E+04   0.448E+00 -.776E+00 -.101E+04   -.208E-01 0.360E-01 0.414E-01   0.330E-03 -.571E-03 0.224E-01
   -.385E+00 0.667E+00 0.721E+03   0.387E+00 -.670E+00 -.721E+03   -.959E-03 0.166E-02 -.274E-01   0.508E-04 -.880E-04 0.262E-01
   -.732E-01 0.127E+00 0.144E+03   0.726E-01 -.126E+00 -.144E+03   0.255E-03 -.441E-03 0.125E-02   0.248E-04 -.430E-04 0.250E-01
   0.732E-01 -.127E+00 -.144E+03   -.726E-01 0.126E+00 0.144E+03   -.251E-03 0.435E-03 -.866E-03   -.244E-04 0.422E-04 -.263E-01
   0.385E+00 -.667E+00 -.721E+03   -.387E+00 0.670E+00 0.721E+03   0.954E-03 -.165E-02 0.275E-01   -.510E-04 0.884E-04 -.262E-01
   0.426E+00 -.739E+00 -.101E+04   -.448E+00 0.776E+00 0.101E+04   0.208E-01 -.360E-01 -.416E-01   -.328E-03 0.568E-03 -.220E-01
   -.157E+00 0.272E+00 0.288E+03   0.156E+00 -.271E+00 -.288E+03   0.104E-02 -.181E-02 -.106E-02   -.639E-05 0.111E-04 0.644E-02
   -.104E-04 0.180E-04 -.171E-02   0.824E-05 -.143E-04 0.186E-02   0.367E-05 -.636E-05 0.566E-04   0.135E-06 -.233E-06 -.237E-03
   0.157E+00 -.272E+00 -.288E+03   -.157E+00 0.271E+00 0.288E+03   -.107E-02 0.185E-02 0.106E-02   0.634E-05 -.110E-04 -.636E-02
   0.679E+00 -.118E+01 0.384E+03   -.399E+00 0.692E+00 -.384E+03   -.283E+00 0.489E+00 -.728E-01   -.638E-05 0.110E-04 0.645E-02
   -.979E-01 0.170E+00 0.192E+03   0.986E-01 -.171E+00 -.192E+03   -.837E-03 0.145E-02 -.347E-02   -.834E-05 0.144E-04 0.930E-02
   -.532E-01 0.921E-01 0.963E+02   0.528E-01 -.915E-01 -.963E+02   0.661E-03 -.115E-02 -.514E-02   -.850E-06 0.147E-05 0.971E-02
   0.532E-01 -.921E-01 -.963E+02   -.528E-01 0.914E-01 0.963E+02   -.650E-03 0.113E-02 0.524E-02   0.996E-06 -.172E-05 -.101E-01
   0.979E-01 -.170E+00 -.192E+03   -.986E-01 0.171E+00 0.192E+03   0.835E-03 -.145E-02 0.350E-02   0.842E-05 -.146E-04 -.941E-02
   -.679E+00 0.118E+01 -.384E+03   0.399E+00 -.692E+00 0.384E+03   0.283E+00 -.489E+00 0.729E-01   0.631E-05 -.109E-04 -.631E-02
   -.109E-04 0.190E-04 0.147E-01   0.974E-05 -.169E-04 -.149E-01   0.209E-05 -.362E-05 0.513E-04   -.487E-07 0.844E-07 0.922E-04
   0.183E+00 -.317E+00 0.707E+03   -.211E+00 0.366E+00 -.710E+03   0.318E-01 -.552E-01 0.389E+01   -.546E-05 0.946E-05 0.649E-02
   -.109E+00 0.188E+00 0.511E+03   0.171E+00 -.296E+00 -.511E+03   -.625E-01 0.108E+00 -.119E+00   -.307E-05 0.531E-05 0.835E-02
   -.198E+00 0.343E+00 0.225E+03   0.170E+00 -.294E+00 -.226E+03   0.259E-01 -.449E-01 0.440E+00   -.188E-05 0.325E-05 0.604E-02
   -.183E+00 0.317E+00 -.707E+03   0.211E+00 -.365E+00 0.710E+03   -.319E-01 0.552E-01 -.389E+01   0.533E-05 -.923E-05 -.628E-02
   0.198E+00 -.343E+00 -.225E+03   -.170E+00 0.294E+00 0.225E+03   -.259E-01 0.448E-01 -.440E+00   0.178E-05 -.308E-05 -.586E-02
   0.109E+00 -.188E+00 -.511E+03   -.171E+00 0.296E+00 0.511E+03   0.625E-01 -.108E+00 0.120E+00   0.296E-05 -.513E-05 -.816E-02
 -----------------------------------------------------------------------------------------------
   0.688E-04 -.119E-03 0.406E-03   0.178E-12 -.261E-13 0.455E-12   -.674E-04 0.117E-03 0.478E-03   0.216E-05 -.374E-05 -.104E-02
 
 
 POSITION                                       TOTAL-FORCE (eV/Angst)
 -----------------------------------------------------------------------------------
      1.29980      0.68696     10.76205         0.003095     -0.005362      0.002849
      1.30031      0.68608     18.36394        -0.000408      0.000706     -0.017567
      1.26767      0.74261     25.96478         0.000409     -0.000709      0.017610
      1.26819      0.74171     33.56671        -0.003109      0.005385     -0.002980
      2.19503     -0.86363     13.28844         0.001245     -0.002156      0.005739
      0.43845      2.17886     15.82480         0.000786     -0.001361     -0.016234
      2.16205     -0.80651     20.89911        -0.000348      0.000602      0.001947
      0.40592      2.23520     23.42961         0.000345     -0.000598     -0.001903
      2.12953     -0.75018     28.50394        -0.000789      0.001367      0.016249
      0.37295      2.29231     31.04031        -0.001227      0.002125     -0.005841
      1.31673      0.65764     14.55653         0.000494     -0.000855      0.013215
      1.28399      0.71435     22.16436         0.000002     -0.000003     -0.000027
      1.25125      0.77104     29.77222        -0.000504      0.000872     -0.013192
      0.45852      2.14409     12.01674        -0.003319      0.005750      0.017455
      2.17829     -0.83464     17.09708        -0.000126      0.000218     -0.000991
      0.42226      2.20690     19.62904         0.000286     -0.000495     -0.004942
      2.14571     -0.77821     24.69968        -0.000280      0.000486      0.004908
      0.38968      2.26332     27.23165         0.000124     -0.000216      0.000970
      2.10946     -0.71541     32.31202         0.003319     -0.005748     -0.017364
     -0.03594      3.00052      1.09441         0.000001     -0.000001      0.000027
      2.56491     -1.50428      9.27226         0.003671     -0.006358      0.008962
      1.80666     -0.19095      6.73797        -0.000078      0.000136     -0.005851
      0.77837      1.59010      3.73063        -0.002257      0.003909      0.011533
      0.00306      2.93297     35.05649        -0.003666      0.006350     -0.008939
      1.78965     -0.16149     40.59831         0.002255     -0.003906     -0.011504
      0.76131      1.61964     37.59073         0.000080     -0.000138      0.005871
 -----------------------------------------------------------------------------------
    total drift:                                0.000004     -0.000006     -0.000152


--------------------------------------------------------------------------------------------------------



  FREE ENERGIE OF THE ION-ELECTRON SYSTEM (eV)
  ---------------------------------------------------
  free  energy   TOTEN  =      -139.92993871 eV

  energy  without entropy=     -139.92702988  energy(sigma->0) =     -139.92848430
 
 d Force = 0.4282615E-03[ 0.171E-03, 0.686E-03]  d Energy = 0.4323240E-03-0.406E-05
 d Force =-0.1419443E+02[-0.142E+02,-0.142E+02]  d Ewald  =-0.1419443E+02-0.228E-07


--------------------------------------------------------------------------------------------------------


    POTLOK:  cpu time    0.21: real time    0.21


--------------------------------------------------------------------------------------------------------


 Conjugate gradient step on ions:
 trial-energy change:   -0.000432  1 .order   -0.000428   -0.000686   -0.000171
  (g-gl).g = 0.484E-03      g.g   = 0.693E-03  gl.gl    = 0.223E-02
 g(Force)  = 0.693E-03   g(Stress)= 0.000E+00 ortho     =-0.138E-03
 gamma     =   0.21709
 trial     =   1.03331
 opt step  =   1.37647  (harmonic =   1.37647) maximal distance =0.00364509
 next E    =  -139.929963   (d E  =  -0.00046)


--------------------------------------------------------------------------------------------------------


  
 reached required accuracy - stopping structural energy minimisation
     LOOP+:  cpu time   77.13: real time   77.20
    4ORBIT:  cpu time    0.00: real time    0.00

 total amount of memory used by VASP on root node   198907. kBytes
========================================================================

   base      :      30000. kBytes
   nonl-proj :      34611. kBytes
   fftplans  :      55173. kBytes
   grid      :      22118. kBytes
   one-center:         56. kBytes
   wavefun   :      56949. kBytes
 
  
  
 General timing and accounting informations for this job:
 ========================================================
  
                  Total CPU time used (sec):     2964.007
                            User time (sec):     2941.141
                          System time (sec):       22.867
                         Elapsed time (sec):     2966.815
  
                   Maximum memory used (kb):      306064.
                   Average memory used (kb):           0.
  
                          Minor page faults:       882745
                          Major page faults:            0
                 Voluntary context switches:          518
