       N       E                     dE             d eps       ncg     rms          rms(c)
DAV:   1     0.468832454620E+03    0.46883E+03   -0.41529E+04  2604   0.132E+03
DAV:   2    -0.941531126921E+02   -0.56299E+03   -0.53467E+03  3420   0.250E+02
DAV:   3    -0.147564137217E+03   -0.53411E+02   -0.53110E+02  3048   0.830E+01
DAV:   4    -0.148261831303E+03   -0.69769E+00   -0.69658E+00  3056   0.103E+01
DAV:   5    -0.148272791743E+03   -0.10960E-01   -0.10957E-01  3060   0.128E+00    0.219E+01
DAV:   6    -0.133586304050E+03    0.14686E+02   -0.83586E+01  2892   0.289E+01    0.748E+00
DAV:   7    -0.133409844816E+03    0.17646E+00   -0.13585E+00  2900   0.503E+00    0.451E+00
DAV:   8    -0.133314498414E+03    0.95346E-01   -0.49769E-01  3064   0.393E+00    0.780E-01
DAV:   9    -0.133291314559E+03    0.23184E-01   -0.10514E-01  2942   0.125E+00    0.492E-01
DAV:  10    -0.133289731561E+03    0.15830E-02   -0.38897E-02  3034   0.831E-01    0.252E-01
DAV:  11    -0.133289477633E+03    0.25393E-03   -0.33156E-03  2980   0.279E-01    0.155E-01
DAV:  12    -0.133288897559E+03    0.58007E-03   -0.33322E-03  3138   0.282E-01    0.709E-02
DAV:  13    -0.133288647923E+03    0.24964E-03   -0.73534E-04  3036   0.139E-01    0.613E-02
DAV:  14    -0.133288245144E+03    0.40278E-03   -0.74867E-04  3884   0.195E-01    0.358E-02
DAV:  15    -0.133287942755E+03    0.30239E-03   -0.34198E-04  3228   0.151E-01    0.212E-02
DAV:  16    -0.133287494375E+03    0.44838E-03   -0.31812E-04  3798   0.244E-01    0.156E-02
DAV:  17    -0.133287296365E+03    0.19801E-03   -0.34175E-04  2954   0.203E-01    0.199E-02
DAV:  18    -0.133287166250E+03    0.13012E-03   -0.27489E-04  3764   0.225E-01    0.114E-02
DAV:  19    -0.133287121439E+03    0.44811E-04   -0.34188E-04  3060   0.188E-01    0.188E-02
DAV:  20    -0.133287084193E+03    0.37246E-04   -0.12761E-04  3314   0.144E-01    0.676E-03
DAV:  21    -0.133287095059E+03   -0.10865E-04   -0.15555E-04  2752   0.573E-02    0.114E-02
DAV:  22    -0.133287093746E+03    0.13123E-05   -0.11733E-05  1686   0.188E-02
   1 F= -.13328709E+03 E0= -.13328450E+03  d E =-.133287E+03
       N       E                     dE             d eps       ncg     rms          rms(c)
DAV:   1    -0.133288529190E+03   -0.14341E-02   -0.30806E-02  2700   0.771E-01    0.324E-02
DAV:   2    -0.133288562402E+03   -0.33212E-04   -0.98030E-04  3038   0.139E-01    0.241E-02
DAV:   3    -0.133288539641E+03    0.22761E-04   -0.56251E-05  2872   0.418E-02    0.174E-02
DAV:   4    -0.133288523024E+03    0.16617E-04   -0.24554E-05  2354   0.297E-02    0.936E-03
DAV:   5    -0.133288495847E+03    0.27177E-04   -0.25130E-05  2348   0.516E-02    0.632E-03
DAV:   6    -0.133288484424E+03    0.11423E-04   -0.23939E-05  2370   0.414E-02    0.607E-03
DAV:   7    -0.133288478148E+03    0.62759E-05   -0.14554E-05  1916   0.316E-02
   2 F= -.13328848E+03 E0= -.13328582E+03  d E =-.138440E-02
       N       E                     dE             d eps       ncg     rms          rms(c)
DAV:   1    -0.133289183969E+03   -0.69954E-03   -0.58095E-02  2640   0.106E+00    0.414E-02
DAV:   2    -0.133289247399E+03   -0.63430E-04   -0.18150E-03  3038   0.187E-01    0.336E-02
DAV:   3    -0.133289198386E+03    0.49013E-04   -0.98907E-05  2990   0.562E-02    0.230E-02
DAV:   4    -0.133289155439E+03    0.42947E-04   -0.54531E-05  2834   0.469E-02    0.118E-02
DAV:   5    -0.133289101343E+03    0.54096E-04   -0.36681E-05  2636   0.662E-02    0.830E-03
DAV:   6    -0.133289063314E+03    0.38028E-04   -0.45006E-05  2738   0.734E-02    0.732E-03
DAV:   7    -0.133289045473E+03    0.17841E-04   -0.37603E-05  2682   0.552E-02    0.735E-03
DAV:   8    -0.133289025631E+03    0.19842E-04   -0.97524E-06  1970   0.575E-02    0.600E-03
DAV:   9    -0.133289011690E+03    0.13941E-04   -0.22211E-05  2290   0.673E-02    0.619E-03
DAV:  10    -0.133289010603E+03    0.10865E-05   -0.34793E-05  2464   0.346E-02
   3 F= -.13328901E+03 E0= -.13328621E+03  d E =-.191686E-02
       N       E                     dE             d eps       ncg     rms          rms(c)
DAV:   1    -0.133289644766E+03   -0.63308E-03   -0.17586E-01  2672   0.179E+00    0.505E-02
DAV:   2    -0.133289962654E+03   -0.31789E-03   -0.36438E-03  2888   0.239E-01    0.307E-02
DAV:   3    -0.133289936623E+03    0.26031E-04   -0.44963E-05  2978   0.425E-02    0.208E-02
DAV:   4    -0.133289913550E+03    0.23073E-04   -0.38248E-05  2720   0.487E-02    0.834E-03
DAV:   5    -0.133289907796E+03    0.57546E-05   -0.27649E-05  2366   0.368E-02    0.624E-03
DAV:   6    -0.133289906298E+03    0.14983E-05   -0.11981E-05  1584   0.193E-02
   4 F= -.13328991E+03 E0= -.13328707E+03  d E =-.895694E-03
       N       E                     dE             d eps       ncg     rms          rms(c)
DAV:   1    -0.133288479113E+03    0.14287E-02   -0.15831E+00  2648   0.537E+00    0.154E-01
DAV:   2    -0.133291389681E+03   -0.29106E-02   -0.33077E-02  2882   0.715E-01    0.933E-02
DAV:   3    -0.133291156292E+03    0.23339E-03   -0.39121E-04  3052   0.122E-01    0.625E-02
DAV:   4    -0.133290954225E+03    0.20207E-03   -0.36521E-04  3070   0.140E-01    0.239E-02
DAV:   5    -0.133290915661E+03    0.38564E-04   -0.22575E-04  3090   0.979E-02    0.182E-02
DAV:   6    -0.133290893814E+03    0.21847E-04   -0.81935E-05  2768   0.629E-02    0.110E-02
DAV:   7    -0.133290859070E+03    0.34744E-04   -0.12382E-05  2038   0.664E-02    0.736E-03
DAV:   8    -0.133290830772E+03    0.28298E-04   -0.28004E-05  2542   0.716E-02    0.696E-03
DAV:   9    -0.133290810760E+03    0.20013E-04   -0.22277E-05  2420   0.738E-02    0.390E-03
DAV:  10    -0.133290792539E+03    0.18221E-04   -0.32393E-05  2710   0.114E-01    0.463E-03
DAV:  11    -0.133290794522E+03   -0.19837E-05   -0.64956E-05  2690   0.513E-02
   5 F= -.13329079E+03 E0= -.13328784E+03  d E =-.178392E-02
       N       E                     dE             d eps       ncg     rms          rms(c)
DAV:   1    -0.133291191163E+03   -0.39862E-03   -0.30433E-01  2692   0.239E+00    0.713E-02
DAV:   2    -0.133291798779E+03   -0.60762E-03   -0.68886E-03  2912   0.333E-01    0.426E-02
DAV:   3    -0.133291758657E+03    0.40123E-04   -0.10292E-04  3066   0.522E-02    0.311E-02
DAV:   4    -0.133291728210E+03    0.30446E-04   -0.83910E-05  2886   0.515E-02    0.131E-02
DAV:   5    -0.133291717533E+03    0.10677E-04   -0.30320E-05  2478   0.388E-02    0.972E-03
DAV:   6    -0.133291712844E+03    0.46887E-05   -0.18738E-05  1954   0.283E-02
   6 F= -.13329171E+03 E0= -.13328875E+03  d E =-.918322E-03
       N       E                     dE             d eps       ncg     rms          rms(c)
DAV:   1    -0.133290079533E+03    0.16380E-02   -0.13638E+00  2660   0.507E+00    0.151E-01
DAV:   2    -0.133292812255E+03   -0.27327E-02   -0.30875E-02  2920   0.704E-01    0.884E-02
DAV:   3    -0.133292620683E+03    0.19157E-03   -0.38943E-04  3090   0.106E-01    0.643E-02
DAV:   4    -0.133292460021E+03    0.16066E-03   -0.38816E-04  3036   0.121E-01    0.256E-02
DAV:   5    -0.133292406660E+03    0.53362E-04   -0.17355E-04  3018   0.908E-02    0.213E-02
DAV:   6    -0.133292385236E+03    0.21423E-04   -0.84770E-05  2906   0.532E-02    0.119E-02
DAV:   7    -0.133292350957E+03    0.34279E-04   -0.21150E-05  2162   0.535E-02    0.772E-03
DAV:   8    -0.133292310817E+03    0.40140E-04   -0.30131E-05  2504   0.792E-02    0.129E-02
DAV:   9    -0.133292286480E+03    0.24337E-04   -0.35007E-05  2632   0.624E-02    0.791E-03
DAV:  10    -0.133292240331E+03    0.46149E-04   -0.37972E-05  2672   0.129E-01    0.709E-03
DAV:  11    -0.133292222183E+03    0.18149E-04   -0.77727E-05  3140   0.105E-01    0.107E-02
DAV:  12    -0.133292221350E+03    0.83218E-06   -0.59734E-05  2624   0.408E-02
   7 F= -.13329222E+03 E0= -.13328929E+03  d E =-.142683E-02
       N       E                     dE             d eps       ncg     rms          rms(c)
DAV:   1    -0.133292679408E+03   -0.45723E-03   -0.28599E-01  2624   0.229E+00    0.629E-02
DAV:   2    -0.133293205177E+03   -0.52577E-03   -0.58303E-03  2938   0.305E-01    0.406E-02
DAV:   3    -0.133293167555E+03    0.37621E-04   -0.66416E-05  3026   0.479E-02    0.283E-02
DAV:   4    -0.133293145086E+03    0.22469E-04   -0.10231E-04  2936   0.597E-02    0.110E-02
DAV:   5    -0.133293143426E+03    0.16599E-05   -0.37593E-05  2614   0.293E-02    0.974E-03
DAV:   6    -0.133293142118E+03    0.13083E-05   -0.62352E-06  1530   0.133E-02
   8 F= -.13329314E+03 E0= -.13329022E+03  d E =-.920767E-03
       N       E                     dE             d eps       ncg     rms          rms(c)
DAV:   1    -0.133289962163E+03    0.31813E-02   -0.25410E+00  2628   0.684E+00    0.196E-01
DAV:   2    -0.133294647658E+03   -0.46855E-02   -0.52480E-02  2932   0.917E-01    0.117E-01
DAV:   3    -0.133294329705E+03    0.31795E-03   -0.66344E-04  3100   0.144E-01    0.827E-02
DAV:   4    -0.133294138886E+03    0.19082E-03   -0.85989E-04  3008   0.171E-01    0.336E-02
DAV:   5    -0.133294120747E+03    0.18138E-04   -0.34933E-04  3064   0.945E-02    0.343E-02
DAV:   6    -0.133294107678E+03    0.13069E-04   -0.64150E-05  2640   0.402E-02    0.226E-02
DAV:   7    -0.133294093589E+03    0.14089E-04   -0.67227E-05  2760   0.398E-02    0.881E-03
DAV:   8    -0.133294087846E+03    0.57429E-05   -0.13863E-05  1870   0.324E-02
   9 F= -.13329409E+03 E0= -.13329119E+03  d E =-.186650E-02
       N       E                     dE             d eps       ncg     rms          rms(c)
DAV:   1    -0.133294383546E+03   -0.28996E-03   -0.57034E-01  2612   0.326E+00    0.100E-01
DAV:   2    -0.133295493432E+03   -0.11099E-02   -0.12628E-02  2982   0.460E-01    0.591E-02
DAV:   3    -0.133295418784E+03    0.74648E-04   -0.21866E-04  3094   0.741E-02    0.432E-02
DAV:   4    -0.133295365545E+03    0.53239E-04   -0.20273E-04  2934   0.730E-02    0.192E-02
DAV:   5    -0.133295346314E+03    0.19231E-04   -0.74604E-05  2964   0.533E-02    0.204E-02
DAV:   6    -0.133295336561E+03    0.97532E-05   -0.42971E-05  2616   0.393E-02
  10 F= -.13329534E+03 E0= -.13329235E+03  d E =-.124871E-02
       N       E                     dE             d eps       ncg     rms          rms(c)
DAV:   1    -0.133294903275E+03    0.44304E-03   -0.38831E-01  2612   0.269E+00    0.840E-02
DAV:   2    -0.133295672369E+03   -0.76909E-03   -0.87690E-03  2982   0.383E-01    0.502E-02
DAV:   3    -0.133295614681E+03    0.57687E-04   -0.14680E-04  3106   0.634E-02    0.364E-02
DAV:   4    -0.133295569438E+03    0.45243E-04   -0.17345E-04  2932   0.689E-02    0.167E-02
DAV:   5    -0.133295553669E+03    0.15769E-04   -0.58564E-05  2962   0.500E-02    0.195E-02
DAV:   6    -0.133295544542E+03    0.91278E-05   -0.40087E-05  2546   0.373E-02
  11 F= -.13329554E+03 E0= -.13329247E+03  d E =-.145670E-02
       N       E                     dE             d eps       ncg     rms          rms(c)
DAV:   1    -0.133295507440E+03    0.46230E-04   -0.70285E-01  2628   0.362E+00    0.107E-01
DAV:   2    -0.133296884795E+03   -0.13774E-02   -0.15057E-02  2942   0.494E-01    0.595E-02
DAV:   3    -0.133296802570E+03    0.82225E-04   -0.18681E-04  3134   0.674E-02    0.402E-02
DAV:   4    -0.133296761593E+03    0.40977E-04   -0.13873E-04  2928   0.658E-02    0.188E-02
DAV:   5    -0.133296752470E+03    0.91227E-05   -0.76140E-05  2926   0.456E-02    0.118E-02
DAV:   6    -0.133296751646E+03    0.82457E-06   -0.13630E-05  1646   0.178E-02
  12 F= -.13329675E+03 E0= -.13329359E+03  d E =-.120710E-02
       N       E                     dE             d eps       ncg     rms          rms(c)
DAV:   1    -0.133292722019E+03    0.40305E-02   -0.29022E+00  2620   0.735E+00    0.215E-01
DAV:   2    -0.133298373369E+03   -0.56514E-02   -0.61878E-02  2948   0.100E+00    0.123E-01
DAV:   3    -0.133298011607E+03    0.36176E-03   -0.74520E-04  3132   0.140E-01    0.827E-02
DAV:   4    -0.133297816103E+03    0.19550E-03   -0.53799E-04  2972   0.140E-01    0.393E-02
DAV:   5    -0.133297753732E+03    0.62372E-04   -0.33052E-04  3016   0.112E-01    0.200E-02
DAV:   6    -0.133297748251E+03    0.54810E-05   -0.99056E-05  2790   0.451E-02
  13 F= -.13329775E+03 E0= -.13329446E+03  d E =-.220371E-02
       N       E                     dE             d eps       ncg     rms          rms(c)
DAV:   1    -0.133297324973E+03    0.42876E-03   -0.92925E-01  2612   0.423E+00    0.131E-01
DAV:   2    -0.133299171273E+03   -0.18463E-02   -0.21380E-02  2960   0.597E-01    0.769E-02
DAV:   3    -0.133299017550E+03    0.15372E-03   -0.36625E-04  3110   0.968E-02    0.541E-02
DAV:   4    -0.133298944776E+03    0.72774E-04   -0.18419E-04  2996   0.710E-02    0.308E-02
DAV:   5    -0.133298880022E+03    0.64754E-04   -0.99510E-05  2984   0.704E-02    0.112E-02
DAV:   6    -0.133298862018E+03    0.18005E-04   -0.54885E-05  2898   0.427E-02    0.730E-03
DAV:   7    -0.133298840767E+03    0.21250E-04   -0.89163E-06  1958   0.342E-02    0.607E-03
DAV:   8    -0.133298813537E+03    0.27230E-04   -0.10490E-05  2066   0.558E-02    0.783E-03
DAV:   9    -0.133298787820E+03    0.25717E-04   -0.26702E-05  2448   0.748E-02    0.640E-03
DAV:  10    -0.133298768276E+03    0.19544E-04   -0.31866E-05  2564   0.868E-02    0.694E-03
DAV:  11    -0.133298763580E+03    0.46959E-05   -0.37246E-05  2534   0.489E-02
  14 F= -.13329876E+03 E0= -.13329556E+03  d E =-.101533E-02
       N       E                     dE             d eps       ncg     rms          rms(c)
DAV:   1    -0.133298654978E+03    0.11330E-03   -0.13656E-01  2670   0.162E+00    0.467E-02
DAV:   2    -0.133298918215E+03   -0.26324E-03   -0.30380E-03  2960   0.226E-01    0.299E-02
DAV:   3    -0.133298897286E+03    0.20929E-04   -0.53884E-05  2984   0.361E-02    0.212E-02
DAV:   4    -0.133298887070E+03    0.10216E-04   -0.24968E-05  2032   0.266E-02    0.118E-02
DAV:   5    -0.133298880247E+03    0.68227E-05   -0.18057E-05  2002   0.251E-02    0.458E-03
DAV:   6    -0.133298879481E+03    0.76684E-06   -0.66699E-06  1590   0.115E-02
  15 F= -.13329888E+03 E0= -.13329569E+03  d E =-.113123E-02
       N       E                     dE             d eps       ncg     rms          rms(c)
DAV:   1    -0.133299158131E+03   -0.27788E-03   -0.14327E-01  2736   0.162E+00    0.512E-02
DAV:   2    -0.133299402855E+03   -0.24472E-03   -0.32601E-03  3006   0.240E-01    0.367E-02
DAV:   3    -0.133299364209E+03    0.38646E-04   -0.79526E-05  2988   0.523E-02    0.272E-02
DAV:   4    -0.133299325518E+03    0.38692E-04   -0.73549E-05  2818   0.547E-02    0.136E-02
DAV:   5    -0.133299300017E+03    0.25500E-04   -0.35845E-05  2766   0.524E-02    0.120E-02
DAV:   6    -0.133299277189E+03    0.22829E-04   -0.23675E-05  2280   0.587E-02    0.539E-03
DAV:   7    -0.133299255520E+03    0.21669E-04   -0.21184E-05  2194   0.630E-02    0.651E-03
DAV:   8    -0.133299225654E+03    0.29866E-04   -0.19374E-05  2286   0.831E-02    0.437E-03
DAV:   9    -0.133299201372E+03    0.24283E-04   -0.43421E-05  2852   0.109E-01    0.556E-03
DAV:  10    -0.133299199971E+03    0.14007E-05   -0.59444E-05  2692   0.582E-02
  16 F= -.13329920E+03 E0= -.13329599E+03  d E =-.320490E-03
       N       E                     dE             d eps       ncg     rms          rms(c)
DAV:   1    -0.133299227596E+03   -0.26224E-04   -0.59908E-03  2810   0.332E-01    0.131E-02
DAV:   2    -0.133299235434E+03   -0.78380E-05   -0.13852E-04  2918   0.534E-02    0.811E-03
DAV:   3    -0.133299233761E+03    0.16730E-05   -0.96565E-06  1688   0.172E-02    0.557E-03
DAV:   4    -0.133299232472E+03    0.12886E-05   -0.28247E-06  1596   0.100E-02    0.315E-03
DAV:   5    -0.133299230918E+03    0.15539E-05   -0.15353E-06  1694   0.124E-02    0.224E-03
DAV:   6    -0.133299229885E+03    0.10333E-05   -0.15421E-06  1686   0.139E-02
  17 F= -.13329923E+03 E0= -.13329602E+03  d E =-.350404E-03
       N       E                     dE             d eps       ncg     rms          rms(c)
DAV:   1    -0.133299229987E+03    0.93109E-06   -0.35139E-04  2612   0.837E-02    0.338E-03
DAV:   2    -0.133299230844E+03   -0.85723E-06   -0.15142E-05  1760   0.175E-02    0.307E-03
DAV:   3    -0.133299230563E+03    0.28192E-06   -0.10299E-06  1572   0.460E-03    0.253E-03
DAV:   4    -0.133299229676E+03    0.88630E-06   -0.20633E-06  1590   0.854E-03    0.200E-03
DAV:   5    -0.133299229461E+03    0.21479E-06   -0.46152E-07  1536   0.440E-03    0.228E-03
DAV:   6    -0.133299229111E+03    0.35095E-06   -0.19542E-07  1518   0.614E-03
  18 F= -.13329923E+03 E0= -.13329602E+03  d E =-.349630E-03
       N       E                     dE             d eps       ncg     rms          rms(c)
DAV:   1    -0.133299287090E+03   -0.57629E-04   -0.19755E-02  2668   0.613E-01    0.215E-02
DAV:   2    -0.133299318127E+03   -0.31037E-04   -0.52968E-04  3052   0.102E-01    0.153E-02
DAV:   3    -0.133299311144E+03    0.69830E-05   -0.21213E-05  2078   0.236E-02    0.123E-02
DAV:   4    -0.133299303843E+03    0.73012E-05   -0.11728E-05  1818   0.184E-02    0.585E-03
DAV:   5    -0.133299299448E+03    0.43951E-05   -0.98513E-06  1894   0.229E-02    0.495E-03
DAV:   6    -0.133299297842E+03    0.16061E-05   -0.86583E-06  1676   0.247E-02
  19 F= -.13329930E+03 E0= -.13329606E+03  d E =-.687312E-04
