 vasp.5.3.5 31Mar14 (build Apr 08 2024 10:12:10) complex                        
  
 executed on             LinuxIFC date 2024.07.29  10:46:48
 running on    8 total cores
 distrk:  each k-point on    8 cores,    1 groups
 distr:  one band on NCORES_PER_BAND=   4 cores,    2 groups


--------------------------------------------------------------------------------------------------------


 INCAR:
 POTCAR:    PAW_PBE O 08Apr2002                   
 POTCAR:    PAW_PBE Mg 13Apr2007                  
 POTCAR:    PAW_PBE Al 04Jan2001                  
 POTCAR:    PAW_PBE O 08Apr2002                   
   VRHFIN =O: s2p4                                                              
   LEXCH  = PE                                                                  
   EATOM  =   432.3788 eV,   31.7789 Ry                                         
                                                                                
   TITEL  = PAW_PBE O 08Apr2002                                                 
   LULTRA =        F    use ultrasoft PP ?                                      
   IUNSCR =        1    unscreen: 0-lin 1-nonlin 2-no                           
   RPACOR =    1.200    partial core radius                                     
   POMASS =   16.000; ZVAL   =    6.000    mass and valenz                      
   RCORE  =    1.520    outmost cutoff radius                                   
   RWIGS  =    1.550; RWIGS  =    0.820    wigner-seitz radius (au A)           
   ENMAX  =  400.000; ENMIN  =  300.000 eV                                      
   ICORE  =        2    local potential                                         
   LCOR   =        T    correct aug charges                                     
   LPAW   =        T    paw PP                                                  
   EAUG   =  605.392                                                            
   DEXC   =    0.000                                                            
   RMAX   =    1.553    core radius for proj-oper                               
   RAUG   =    1.300    factor for augmentation sphere                          
   RDEP   =    1.550    radius for radial grids                                 
   RDEPT  =    1.329    core radius for aug-charge                              
                                                                                
   Atomic configuration                                                         
    4 entries                                                                   
     n  l   j            E        occ.                                          
     1  0  0.50      -514.6923   2.0000                                         
     2  0  0.50       -23.9615   2.0000                                         
     2  1  0.50        -9.0305   4.0000                                         
     3  2  1.50        -9.5241   0.0000                                         
   Description                                                                  
     l       E           TYP  RCUT    TYP  RCUT                                 
     0    -23.9615318     23  1.200                                             
     0     -9.5240782     23  1.200                                             
     1     -9.0304911     23  1.520                                             
     1      8.1634956     23  1.520                                             
     2     -9.5240782      7  1.500                                             
  local pseudopotential read in
  partial core-charges read in
  partial kinetic energy density read in
  kinetic energy density of atom read in
  atomic valenz-charges read in
  non local Contribution for L=           0  read in
    real space projection operators read in
  non local Contribution for L=           0  read in
    real space projection operators read in
  non local Contribution for L=           1  read in
    real space projection operators read in
  non local Contribution for L=           1  read in
    real space projection operators read in
    PAW grid and wavefunctions read in
 
   number of l-projection  operators is LMAX  =           4
   number of lm-projection operators is LMMAX =           8
 
 POTCAR:    PAW_PBE Mg 13Apr2007                  
   VRHFIN =Mg: s2p0                                                             
   LEXCH  = PE                                                                  
   EATOM  =    23.0369 eV,    1.6932 Ry                                         
                                                                                
   TITEL  = PAW_PBE Mg 13Apr2007                                                
   LULTRA =        F    use ultrasoft PP ?                                      
   IUNSCR =        1    unscreen: 0-lin 1-nonlin 2-no                           
   RPACOR =    1.500    partial core radius                                     
   POMASS =   24.305; ZVAL   =    2.000    mass and valenz                      
   RCORE  =    2.000    outmost cutoff radius                                   
   RWIGS  =    2.880; RWIGS  =    1.524    wigner-seitz radius (au A)           
   ENMAX  =  200.000; ENMIN  =  100.000 eV                                      
   RCLOC  =    1.506    cutoff for local pot                                    
   LCOR   =        T    correct aug charges                                     
   LPAW   =        T    paw PP                                                  
   EAUG   =  454.734                                                            
   DEXC   =    0.000                                                            
   RMAX   =    2.045    core radius for proj-oper                               
   RAUG   =    1.300    factor for augmentation sphere                          
   RDEP   =    2.025    radius for radial grids                                 
   RDEPT  =    1.942    core radius for aug-charge                              
                                                                                
   Atomic configuration                                                         
    6 entries                                                                   
     n  l   j            E        occ.                                          
     1  0  0.50     -1259.6230   2.0000                                         
     2  0  0.50       -79.8442   2.0000                                         
     2  1  1.50       -46.6121   6.0000                                         
     3  0  0.50        -4.7055   2.0000                                         
     3  1  0.50        -1.3660   0.0000                                         
     3  2  1.50        -1.3606   0.0000                                         
   Description                                                                  
     l       E           TYP  RCUT    TYP  RCUT                                 
     0     -4.7054661     23  2.000                                             
     0     27.2116520     23  2.000                                             
     1      1.3605826     23  2.000                                             
     1     27.2116520     23  2.000                                             
     2     -1.3605826     23  2.000                                             
  local pseudopotential read in
  partial core-charges read in
  partial kinetic energy density read in
  atomic valenz-charges read in
  non local Contribution for L=           0  read in
    real space projection operators read in
  non local Contribution for L=           0  read in
    real space projection operators read in
  non local Contribution for L=           1  read in
    real space projection operators read in
  non local Contribution for L=           1  read in
    real space projection operators read in
  non local Contribution for L=           2  read in
    real space projection operators read in
    PAW grid and wavefunctions read in
 
   number of l-projection  operators is LMAX  =           5
   number of lm-projection operators is LMMAX =          13
 
 POTCAR:    PAW_PBE Al 04Jan2001                  
   VRHFIN =Al: s2p1                                                             
   LEXCH  = PE                                                                  
   EATOM  =    53.5387 eV,    3.9350 Ry                                         
                                                                                
   TITEL  = PAW_PBE Al 04Jan2001                                                
   LULTRA =        F    use ultrasoft PP ?                                      
   IUNSCR =        1    unscreen: 0-lin 1-nonlin 2-no                           
   RPACOR =    1.500    partial core radius                                     
   POMASS =   26.981; ZVAL   =    3.000    mass and valenz                      
   RCORE  =    1.900    outmost cutoff radius                                   
   RWIGS  =    2.650; RWIGS  =    1.402    wigner-seitz radius (au A)           
   ENMAX  =  240.300; ENMIN  =  180.225 eV                                      
   ICORE  =        2    local potential                                         
   LCOR   =        T    correct aug charges                                     
   LPAW   =        T    paw PP                                                  
   EAUG   =  291.052                                                            
   DEXC   =    0.000                                                            
   RMAX   =    1.939    core radius for proj-oper                               
   RAUG   =    1.300    factor for augmentation sphere                          
   RDEP   =    1.966    radius for radial grids                                 
   RDEPT  =    1.856    core radius for aug-charge                              
                                                                                
   Atomic configuration                                                         
    6 entries                                                                   
     n  l   j            E        occ.                                          
     1  0  0.50     -1511.1048   2.0000                                         
     2  0  0.50      -108.1629   2.0000                                         
     2  1  1.50       -69.6402   6.0000                                         
     3  0  0.50        -7.7528   2.0000                                         
     3  1  1.50        -2.7121   1.0000                                         
     3  2  2.50        -2.7212   0.0000                                         
   Description                                                                  
     l       E           TYP  RCUT    TYP  RCUT                                 
     0     -7.7528455     23  1.900                                             
     0     -3.3096929     23  1.900                                             
     1     -2.7120682     23  1.900                                             
     1     13.6058260     23  1.900                                             
     2     -2.7211652      7  1.900                                             
  local pseudopotential read in
  partial core-charges read in
  partial kinetic energy density read in
  atomic valenz-charges read in
  non local Contribution for L=           0  read in
    real space projection operators read in
  non local Contribution for L=           0  read in
    real space projection operators read in
  non local Contribution for L=           1  read in
    real space projection operators read in
  non local Contribution for L=           1  read in
    real space projection operators read in
    PAW grid and wavefunctions read in
 
   number of l-projection  operators is LMAX  =           4
   number of lm-projection operators is LMMAX =           8
 

 ----------------------------------------------------------------------------- 
|                                                                             |
|  ADVICE TO THIS USER RUNNING 'VASP/VAMP'   (HEAR YOUR MASTER'S VOICE ...):  |
|                                                                             |
|      You have a (more or less) 'large supercell' and for larger cells       |
|      it might be more efficient to use real space projection opertators     |
|      So try LREAL= Auto  in the INCAR   file.                               |
|      Mind: At the moment your POTCAR file does not contain real space       |
|       projectors, and has to be modified,  BUT if you                       |
|      want to do an extremely  accurate calculation you might also keep the  |
|      reciprocal projection scheme          (i.e. LREAL=.FALSE.)             |
|                                                                             |
 ----------------------------------------------------------------------------- 

  PAW_PBE O 08Apr2002                   :
 energy of atom  1       EATOM= -432.3788
 kinetic energy error for atom=    0.0208 (will be added to EATOM!!)
  PAW_PBE Mg 13Apr2007                  :
 energy of atom  2       EATOM=  -23.0369
 kinetic energy error for atom=    0.0000 (will be added to EATOM!!)
  PAW_PBE Al 04Jan2001                  :
 energy of atom  3       EATOM=  -53.5387
 kinetic energy error for atom=    0.0002 (will be added to EATOM!!)
 
 
 POSCAR: Layer                                   
  positions in direct lattice
  velocities in cartesian coordinates
 exchange correlation table for  LEXCH =        8
   RHO(1)=    0.500       N(1)  =     2000
   RHO(2)=  100.500       N(2)  =     4000
 


--------------------------------------------------------------------------------------------------------


 ion  position               nearest neighbor table
   1  0.000  0.000  0.346-  14 2.13  14 2.13  14 2.13  17 2.13  17 2.13  17 2.13
   2  0.333  0.667  0.406-  14 2.13  14 2.13  14 2.13  11 2.13  11 2.13  11 2.13
   3  0.000  0.000  0.526-  18 2.13  18 2.13  18 2.13  15 2.13  15 2.13  15 2.13
   4  0.333  0.667  0.586-  15 2.13  15 2.13  15 2.13  12 2.13  12 2.13  12 2.13
   5  0.000  0.000  0.705-  16 2.13  16 2.13  16 2.13  19 2.14  19 2.14  19 2.14
   6  0.333  0.667  0.765-  16 2.14  16 2.14  16 2.14  13 2.15  13 2.15  13 2.15
   7  0.667  0.333  0.286-  17 2.13  17 2.13  17 2.13  10 2.15  10 2.15  10 2.15
   8  0.667  0.333  0.466-  11 2.13  11 2.13  11 2.13  18 2.13  18 2.13  18 2.13
   9  0.667  0.333  0.645-  19 2.13  19 2.13  19 2.13  12 2.13  12 2.13  12 2.13
  10  0.000  0.000  0.256-   7 2.15   7 2.15   7 2.15  21 2.81  17 3.07  17 3.07  17 3.07
  11  0.000  0.000  0.436-   8 2.13   8 2.13   8 2.13   2 2.13   2 2.13   2 2.13  18 3.04  18 3.04
                            18 3.04  14 3.04  14 3.04  14 3.04
  12  0.000  0.000  0.615-   4 2.13   4 2.13   4 2.13   9 2.13   9 2.13   9 2.13  15 3.04  15 3.04
                            15 3.04  19 3.04  19 3.04  19 3.04
  13  0.000  0.000  0.796-   6 2.15   6 2.15   6 2.15  24 2.80  16 3.07  16 3.07  16 3.07
  14  0.667  0.333  0.376-   2 2.13   2 2.13   2 2.13   1 2.13   1 2.13   1 2.13  11 3.04  11 3.04
                            11 3.04  17 3.04  17 3.04  17 3.04
  15  0.667  0.333  0.556-   4 2.13   4 2.13   4 2.13   3 2.13   3 2.13   3 2.13  18 3.04  18 3.04
                            18 3.04  12 3.04  12 3.04  12 3.04
  16  0.667  0.333  0.735-   5 2.13   5 2.13   5 2.13   6 2.14   6 2.14   6 2.14  19 3.05  19 3.05
                            19 3.05  13 3.07  13 3.07  13 3.07
  17  0.333  0.667  0.316-   7 2.13   7 2.13   7 2.13   1 2.13   1 2.13   1 2.13  14 3.04  14 3.04
                            14 3.04  10 3.07  10 3.07  10 3.07
  18  0.333  0.667  0.496-   3 2.13   3 2.13   3 2.13   8 2.13   8 2.13   8 2.13  11 3.04  11 3.04
                            11 3.04  15 3.04  15 3.04  15 3.04
  19  0.333  0.667  0.675-   9 2.13   9 2.13   9 2.13   5 2.14   5 2.14   5 2.14  12 3.04  12 3.04
                            12 3.04  16 3.05  16 3.05  16 3.05
  20  0.000  0.000  0.026-  25 2.85  25 2.85  25 2.85  23 2.85  23 2.85  23 2.85
  21  0.000  0.000  0.189-  10 2.81  22 2.85  22 2.85  22 2.85
  22  0.667  0.333  0.134-  21 2.85  21 2.85  21 2.85  23 2.86  23 2.86  23 2.86
  23  0.333  0.667  0.080-  20 2.85  20 2.85  20 2.85  22 2.86  22 2.86  22 2.86
  24  0.000  0.000  0.863-  13 2.80  26 2.85  26 2.85  26 2.85
  25  0.667  0.333  0.972-  20 2.85  20 2.85  20 2.85  26 2.86  26 2.86  26 2.86
  26  0.333  0.667  0.917-  24 2.85  24 2.85  24 2.85  25 2.86  25 2.86  25 2.86
 
  LATTYP: Found a hexagonal cell.
 ALAT       =     2.9929628358
 C/A-ratio  =    13.9744806980
  
  Lattice vectors:
  
 A1 = (   2.5919820457,  -1.4964810762,   0.0000000000)
 A2 = (   0.0000000000,   2.9929621524,   0.0000000000)
 A3 = (   0.0000000000,  -0.0000000000,  41.8251013788)


Analysis of symmetry for initial positions (statically):
=====================================================================
 Subroutine PRICEL returns:
 Original cell was already a primitive cell.
 

 Routine SETGRP: Setting up the symmetry group for a 
 hexagonal supercell.


 Subroutine GETGRP returns: Found  6 space group operations
 (whereof  6 operations were pure point group operations)
 out of a pool of 24 trial point group operations.


The static configuration has the point symmetry C_3v.


Analysis of symmetry for dynamics (positions and initial velocities):
=====================================================================
 Subroutine PRICEL returns:
 Original cell was already a primitive cell.
 

 Routine SETGRP: Setting up the symmetry group for a 
 hexagonal supercell.


 Subroutine GETGRP returns: Found  6 space group operations
 (whereof  6 operations were pure point group operations)
 out of a pool of 24 trial point group operations.


The dynamic configuration has the point symmetry C_3v.


Analysis of constrained symmetry for selective dynamics:
=====================================================================
 Subroutine PRICEL returns:
 Original cell was already a primitive cell.
 

 Routine SETGRP: Setting up the symmetry group for a 
 hexagonal supercell.


 Subroutine GETGRP returns: Found  6 space group operations
 (whereof  6 operations were pure point group operations)
 out of a pool of 24 trial point group operations.


The constrained configuration has the point symmetry C_3v.
 
 
 KPOINTS: K-Spacing Value to Generate K-Mesh: 0.02

Automatic generation of k-mesh.
Space group operators:
 irot       det(A)        alpha          n_x          n_y          n_z        tau_x        tau_y        tau_z
    1     1.000000     0.000001     1.000000     0.000000     0.000000     0.000000     0.000000     0.000000
    2     1.000000   120.000000    -0.000000     0.000000    -1.000000     0.000000     0.000000     0.000000
    3     1.000000   120.000000    -0.000000    -0.000000     1.000000     0.000000     0.000000     0.000000
    4    -1.000000   180.000000    -0.866025     0.500000     0.000000     0.000000     0.000000     0.000000
    5    -1.000000   180.000000     0.000000     1.000000     0.000000     0.000000     0.000000     0.000000
    6    -1.000000   180.000000    -0.866025    -0.500000    -0.000000     0.000000     0.000000     0.000000
 
 Subroutine IBZKPT returns following result:
 ===========================================
 
 Found     21 irreducible k-points:
 
 Following reciprocal coordinates:
            Coordinates               Weight
  0.000000  0.000000  0.000000      1.000000
  0.076923  0.000000 -0.000000      6.000000
  0.153846 -0.000000 -0.000000      6.000000
  0.230769 -0.000000  0.000000      6.000000
  0.307692 -0.000000  0.000000      6.000000
  0.384615  0.000000  0.000000      6.000000
  0.461538 -0.000000  0.000000      6.000000
  0.076923  0.076923  0.000000      6.000000
  0.153846  0.076923  0.000000     12.000000
  0.230769  0.076923  0.000000     12.000000
  0.307692  0.076923 -0.000000     12.000000
  0.384615  0.076923 -0.000000     12.000000
  0.461538  0.076923  0.000000      6.000000
  0.153846  0.153846 -0.000000      6.000000
  0.230769  0.153846 -0.000000     12.000000
  0.307692  0.153846  0.000000     12.000000
  0.384615  0.153846  0.000000     12.000000
  0.230769  0.230769  0.000000      6.000000
  0.307692  0.230769  0.000000     12.000000
  0.384615  0.230769  0.000000      6.000000
  0.307692  0.307692 -0.000000      6.000000
 
 Following cartesian coordinates:
            Coordinates               Weight
  0.000000  0.000000  0.000000      1.000000
  0.029677 -0.000000 -0.000000      6.000000
  0.059355 -0.000000 -0.000000      6.000000
  0.089032 -0.000000 -0.000000      6.000000
  0.118709 -0.000000 -0.000000      6.000000
  0.148387 -0.000000 -0.000000      6.000000
  0.178064 -0.000000 -0.000000      6.000000
  0.044516  0.025701  0.000000      6.000000
  0.074193  0.025701  0.000000     12.000000
  0.103871  0.025701  0.000000     12.000000
  0.133548  0.025701  0.000000     12.000000
  0.163225  0.025701  0.000000     12.000000
  0.192903  0.025701  0.000000      6.000000
  0.089032  0.051403  0.000000      6.000000
  0.118709  0.051403  0.000000     12.000000
  0.148387  0.051403  0.000000     12.000000
  0.178064  0.051403  0.000000     12.000000
  0.133548  0.077104  0.000000      6.000000
  0.163225  0.077104  0.000000     12.000000
  0.192903  0.077104  0.000000      6.000000
  0.178064  0.102805  0.000000      6.000000
 


--------------------------------------------------------------------------------------------------------




 Dimension of arrays:
   k-points           NKPTS =     21   k-points in BZ     NKDIM =     21   number of bands    NBANDS=     62
   number of dos      NEDOS =    301   number of ions     NIONS =     26
   non local maximal  LDIM  =      5   non local SUM 2l+1 LMDIM =     13
   total plane-waves  NPLWV = 184320
   max r-space proj   IRMAX =      1   max aug-charges    IRDMAX= 193229
   dimension x,y,z NGX =    24 NGY =   24 NGZ =  320
   dimension x,y,z NGXF=    48 NGYF=   48 NGZF=  640
   support grid    NGXF=    96 NGYF=   96 NGZF= 1280
   ions per type =               9  10   7
 NGX,Y,Z   is equivalent  to a cutoff of  13.33, 13.33, 12.72 a.u.
 NGXF,Y,Z  is equivalent  to a cutoff of  26.66, 26.66, 25.44 a.u.


 I would recommend the setting:
   dimension x,y,z NGX =    22 NGY =   22 NGZ =  311
 SYSTEM =  unknown system                          
 POSCAR =  Layer                                   

 Startparameter for this run:
   NWRITE =      2    write-flag & timer
   PREC   = accura    normal or accurate (medium, high low for compatibility)
   ISTART =      0    job   : 0-new  1-cont  2-samecut
   ICHARG =      2    charge: 1-file 2-atom 10-const
   ISPIN  =      1    spin polarized calculation?
   LNONCOLLINEAR =      F non collinear calculations
   LSORBIT =      F    spin-orbit coupling
   INIWAV =      1    electr: 0-lowe 1-rand  2-diag
   LASPH  =      F    aspherical Exc in radial PAW
   METAGGA=      F    non-selfconsistent MetaGGA calc.

 Electronic Relaxation 1
   ENCUT  =  520.0 eV  38.22 Ry    6.18 a.u.   5.56  5.56 77.77*2*pi/ulx,y,z
   ENINI  =  520.0     initial cutoff
   ENAUG  =  605.4 eV  augmentation charge cutoff
   NELM   =    100;   NELMIN=  6; NELMDL=  0     # of ELM steps 
   EDIFF  = 0.1E-04   stopping-criterion for ELM
   LREAL  =      F    real-space projection
   NLSPLINE    = F    spline interpolate recip. space projectors
   LCOMPAT=      F    compatible to vasp.4.4
   GGA_COMPAT  = T    GGA compatible to vasp.4.4-vasp.4.6
   LMAXPAW     = -100 max onsite density
   LMAXMIX     =    2 max onsite mixed and CHGCAR
   VOSKOWN=      0    Vosko Wilk Nusair interpolation
   ROPT   =    0.00000   0.00000   0.00000
 Ionic relaxation
   EDIFFG = -.2E-01   stopping-criterion for IOM
   NSW    =    500    number of steps for IOM
   NBLOCK =      1;   KBLOCK =    500    inner block; outer block 
   IBRION =      2    ionic relax: 0-MD 1-quasi-New 2-CG
   NFREE  =      1    steps in history (QN), initial steepest desc. (CG)
   ISIF   =      2    stress and relaxation
   IWAVPR =     11    prediction:  0-non 1-charg 2-wave 3-comb
   ISYM   =      2    0-nonsym 1-usesym 2-fastsym
   LCORR  =      T    Harris-Foulkes like correction to forces

   POTIM  = 0.5000    time-step for ionic-motion
   TEIN   =    0.0    initial temperature
   TEBEG  =    0.0;   TEEND  =   0.0 temperature during run
   SMASS  =  -3.00    Nose mass-parameter (am)
   estimated Nose-frequenzy (Omega)   =  0.10E-29 period in steps =****** mass=  -0.205E-27a.u.
   SCALEE = 1.0000    scale energy and forces
   NPACO  =    256;   APACO  = 16.0  distance and # of slots for P.C.
   PSTRESS=    0.0 pullay stress

  Mass of Ions in am
   POMASS =  16.00 24.30 26.98
  Ionic Valenz
   ZVAL   =   6.00  2.00  3.00
  Atomic Wigner-Seitz radii
   RWIGS  =  -1.00 -1.00 -1.00
  virtual crystal weights 
   VCA    =   1.00  1.00  1.00
   NELECT =      95.0000    total number of electrons
   NUPDOWN=      -1.0000    fix difference up-down

 DOS related values:
   EMIN   =  10.00;   EMAX   =-10.00  energy-range for DOS
   EFERMI =   0.00
   ISMEAR =     0;   SIGMA  =   0.05  broadening in eV -4-tet -1-fermi 0-gaus

 Electronic relaxation 2 (details)
   IALGO  =     38    algorithm
   LDIAG  =      T    sub-space diagonalisation (order eigenvalues)
   LSUBROT=      F    optimize rotation matrix (better conditioning)
   TURBO    =      0    0=normal 1=particle mesh
   IRESTART =      0    0=no restart 2=restart with 2 vectors
   NREBOOT  =      0    no. of reboots
   NMIN     =      0    reboot dimension
   EREF     =   0.00    reference energy to select bands
   IMIX   =      4    mixing-type and parameters
     AMIX     =   0.40;   BMIX     =  1.00
     AMIX_MAG =   1.60;   BMIX_MAG =  1.00
     AMIN     =   0.01
     WC   =   100.;   INIMIX=   1;  MIXPRE=   1;  MAXMIX= -45

 Intra band minimization:
   WEIMIN = 0.0010     energy-eigenvalue tresh-hold
   EBREAK =  0.40E-07  absolut break condition
   DEPER  =   0.30     relativ break condition  

   TIME   =   0.40     timestep for ELM

  volume/ion in A,a.u.               =      12.48        84.22
  Fermi-wavevector in a.u.,A,eV,Ry     =   1.087074  2.054273 16.078425  1.181731
  Thomas-Fermi vector in A             =   2.223226
 
 Write flags
   LWAVE  =      F    write WAVECAR
   LCHARG =      T    write CHGCAR
   LVTOT  =      F    write LOCPOT, total local potential
   LVHAR  =      F    write LOCPOT, Hartree potential only
   LELF   =      F    write electronic localiz. function (ELF)
   LORBIT =      0    0 simple, 1 ext, 2 COOP (PROOUT)


 Dipole corrections
   LMONO  =      F    monopole corrections only (constant potential shift)
   LDIPOL =      F    correct potential (dipole corrections)
   IDIPOL =      0    1-x, 2-y, 3-z, 4-all directions 
   EPSILON=  1.0000000 bulk dielectric constant

 Exchange correlation treatment:
   GGA     =    --    GGA type
   LEXCH   =     8    internal setting for exchange type
   VOSKOWN=      0    Vosko Wilk Nusair interpolation
   LHFCALC =     F    Hartree Fock is set to
   LHFONE  =     F    Hartree Fock one center treatment
   AEXX    =    0.0000 exact exchange contribution

 Linear response parameters
   LEPSILON=     F    determine dielectric tensor
   LRPA    =     F    only Hartree local field effects (RPA)
   LNABLA  =     F    use nabla operator in PAW spheres
   LVEL    =     F    velocity operator in full k-point grid
   LINTERFAST=   F  fast interpolation
   KINTER  =     0    interpolate to denser k-point grid
   CSHIFT  =0.1000    complex shift for real part using Kramers Kronig
   OMEGAMAX=  -1.0    maximum frequency
   DEG_THRESHOLD= 0.2000000E-02 threshold for treating states as degnerate
   RTIME   =    0.100 relaxation time in fs

 Orbital magnetization related:
   ORBITALMAG=     F  switch on orbital magnetization
   LCHIMAG   =     F  perturbation theory with respect to B field
   DQ        =  0.001000  dq finite difference perturbation B field



--------------------------------------------------------------------------------------------------------


 conjugate gradient relaxation of ions
   using selective dynamics as specified on POSCAR
 charge density and potential will be updated during run
 non-spin polarized calculation
 Variant of blocked Davidson
 Davidson routine will perform the subspace rotation
 perform sub-space diagonalisation
    after iterative eigenvector-optimisation
 modified Broyden-mixing scheme, WC =      100.0
 initial mixing is a Kerker type mixing with AMIX =  0.4000 and BMIX =      1.0000
 Hartree-type preconditioning will be used
 using additional bands           14
 reciprocal scheme for non local part
 use partial core corrections
 calculate Harris-corrections to forces 
   (improved forces if not selfconsistent)
 use gradient corrections 
 use of overlap-Matrix (Vanderbilt PP)
 Gauss-broadening in eV      SIGMA  =   0.05


--------------------------------------------------------------------------------------------------------


  energy-cutoff  :      520.00
  volume of cell :      324.47
      direct lattice vectors                 reciprocal lattice vectors
     2.591982046 -1.496481076  0.000000000     0.385805142 -0.000000000 -0.000000000
     0.000000000  2.992962152  0.000000000     0.192902571  0.334117155  0.000000000
     0.000000000 -0.000000000 41.825101379     0.000000000  0.000000000  0.023909087

  length of vectors
     2.992962836  2.992962152 41.825101379     0.385805142  0.385805230  0.023909087


 
 k-points in units of 2pi/SCALE and weight: K-Spacing Value to Generate K-Mesh: 0.02
   0.00000000  0.00000000  0.00000000       0.006
   0.02967732 -0.00000000 -0.00000000       0.036
   0.05935464 -0.00000000 -0.00000000       0.036
   0.08903196 -0.00000000 -0.00000000       0.036
   0.11870927 -0.00000000 -0.00000000       0.036
   0.14838659 -0.00000000 -0.00000000       0.036
   0.17806391 -0.00000000 -0.00000000       0.036
   0.04451598  0.02570132  0.00000000       0.036
   0.07419330  0.02570132  0.00000000       0.071
   0.10387062  0.02570132  0.00000000       0.071
   0.13354793  0.02570132  0.00000000       0.071
   0.16322525  0.02570132  0.00000000       0.071
   0.19290257  0.02570132  0.00000000       0.036
   0.08903196  0.05140264  0.00000000       0.036
   0.11870927  0.05140264  0.00000000       0.071
   0.14838659  0.05140264  0.00000000       0.071
   0.17806391  0.05140264  0.00000000       0.071
   0.13354793  0.07710396  0.00000000       0.036
   0.16322525  0.07710396  0.00000000       0.071
   0.19290257  0.07710396  0.00000000       0.036
   0.17806391  0.10280528  0.00000000       0.036
 
 k-points in reciprocal lattice and weights: K-Spacing Value to Generate K-Mesh: 0.02
   0.00000000  0.00000000  0.00000000       0.006
   0.07692308  0.00000000 -0.00000000       0.036
   0.15384615 -0.00000000 -0.00000000       0.036
   0.23076923 -0.00000000  0.00000000       0.036
   0.30769231 -0.00000000  0.00000000       0.036
   0.38461538  0.00000000  0.00000000       0.036
   0.46153846 -0.00000000  0.00000000       0.036
   0.07692308  0.07692308  0.00000000       0.036
   0.15384615  0.07692308  0.00000000       0.071
   0.23076923  0.07692308  0.00000000       0.071
   0.30769231  0.07692308 -0.00000000       0.071
   0.38461538  0.07692308 -0.00000000       0.071
   0.46153846  0.07692308  0.00000000       0.036
   0.15384615  0.15384615 -0.00000000       0.036
   0.23076923  0.15384615 -0.00000000       0.071
   0.30769231  0.15384615  0.00000000       0.071
   0.38461538  0.15384615  0.00000000       0.071
   0.23076923  0.23076923  0.00000000       0.036
   0.30769231  0.23076923  0.00000000       0.071
   0.38461538  0.23076923  0.00000000       0.036
   0.30769231  0.30769231 -0.00000000       0.036
 
 position of ions in fractional coordinates (direct lattice) 
   0.00000000  0.00000000  0.34625257
   0.33333300  0.66666700  0.40607432
   0.00000000  0.00000000  0.52565893
   0.33333300  0.66666700  0.58553351
   0.00000000  0.00000000  0.70539288
   0.33333300  0.66666700  0.76534519
   0.66666700  0.33333300  0.28635446
   0.66666700  0.33333300  0.46584500
   0.66666700  0.33333300  0.64544069
   0.00000000  0.00000000  0.25569341
   0.00000000  0.00000000  0.43598275
   0.00000000  0.00000000  0.61548191
   0.00000000  0.00000000  0.79600834
   0.66666700  0.33333300  0.37618162
   0.66666700  0.33333300  0.55560732
   0.66666700  0.33333300  0.73535372
   0.33333300  0.66666700  0.31629416
   0.33333300  0.66666700  0.49577000
   0.33333300  0.66666700  0.67539100
   0.00000000  0.00000000  0.02584869
   0.00000000  0.00000000  0.18862830
   0.66666700  0.33333300  0.13429759
   0.33333300  0.66666700  0.07992595
   0.00000000  0.00000000  0.86302180
   0.66666700  0.33333300  0.97180172
   0.33333300  0.66666700  0.91732915
 
 position of ions in cartesian coordinates  (Angst):
   0.00000000 -0.00000000 14.48204902
   0.86399315  1.49648257 16.98409944
   0.00000000 -0.00000000 21.98573811
   0.86399315  1.49648257 24.48999830
   0.00000000 -0.00000000 29.50312879
   0.86399315  1.49648257 32.01064032
   1.72798889 -0.00000150 11.97680439
   1.72798889 -0.00000150 19.48401427
   1.72798889 -0.00000150 26.99562233
   0.00000000 -0.00000000 10.69440268
   0.00000000 -0.00000000 18.23502289
   0.00000000 -0.00000000 25.74259347
   0.00000000 -0.00000000 33.29312967
   1.72798889 -0.00000150 15.73383460
   1.72798889 -0.00000150 23.23833229
   1.72798889 -0.00000150 30.75624399
   0.86399315  1.49648257 13.22903513
   0.86399315  1.49648257 20.73563034
   0.86399315  1.49648257 28.24829711
   0.00000000 -0.00000000  1.08112422
   0.00000000 -0.00000000  7.88939797
   1.72798889 -0.00000150  5.61701037
   0.86399315  1.49648257  3.34291084
   0.00000000 -0.00000000 36.09597417
   1.72798889 -0.00000150 40.64570555
   0.86399315  1.49648257 38.36738482
 


--------------------------------------------------------------------------------------------------------


 k-point  1 :   0.0000 0.0000 0.0000  plane waves:    8891
 k-point  2 :   0.0769 0.0000-0.0000  plane waves:    8851
 k-point  3 :   0.1538-0.0000-0.0000  plane waves:    8827
 k-point  4 :   0.2308-0.0000 0.0000  plane waves:    8794
 k-point  5 :   0.3077-0.0000 0.0000  plane waves:    8734
 k-point  6 :   0.3846 0.0000 0.0000  plane waves:    8686
 k-point  7 :   0.4615-0.0000 0.0000  plane waves:    8702
 k-point  8 :   0.0769 0.0769 0.0000  plane waves:    8837
 k-point  9 :   0.1538 0.0769 0.0000  plane waves:    8804
 k-point 10 :   0.2308 0.0769 0.0000  plane waves:    8767
 k-point 11 :   0.3077 0.0769-0.0000  plane waves:    8732
 k-point 12 :   0.3846 0.0769-0.0000  plane waves:    8688
 k-point 13 :   0.4615 0.0769 0.0000  plane waves:    8654
 k-point 14 :   0.1538 0.1538-0.0000  plane waves:    8761
 k-point 15 :   0.2308 0.1538-0.0000  plane waves:    8742
 k-point 16 :   0.3077 0.1538 0.0000  plane waves:    8726
 k-point 17 :   0.3846 0.1538 0.0000  plane waves:    8692
 k-point 18 :   0.2308 0.2308 0.0000  plane waves:    8710
 k-point 19 :   0.3077 0.2308 0.0000  plane waves:    8689
 k-point 20 :   0.3846 0.2308 0.0000  plane waves:    8712
 k-point 21 :   0.3077 0.3077-0.0000  plane waves:    8730

 maximum and minimum number of plane-waves per node :      2238     2153

 maximum number of plane-waves:      8891
 maximum index in each direction: 
   IXMAX=    5   IYMAX=    5   IZMAX=   77
   IXMIN=   -6   IYMIN=   -5   IZMIN=  -77

 NGX is ok and might be reduce to  24
 NGY is ok and might be reduce to  22
 NGZ is ok and might be reduce to 310

 parallel 3D FFT for wavefunctions:
    minimum data exchange during FFTs selected (reduces bandwidth)
 parallel 3D FFT for charge:
    minimum data exchange during FFTs selected (reduces bandwidth)


 total amount of memory used by VASP on root node   146652. kBytes
========================================================================

   base      :      30000. kBytes
   nonl-proj :      15455. kBytes
   fftplans  :      55171. kBytes
   grid      :      22118. kBytes
   one-center:         56. kBytes
   wavefun   :      23852. kBytes
 
     INWAV:  cpu time    0.00: real time    0.00
 Broyden mixing: mesh for mixing (old mesh)
   NGX = 11   NGY = 11   NGZ =155
  (NGX  = 48   NGY  = 48   NGZ  =640)
  gives a total of  18755 points

 initial charge density was supplied:
 charge density of overlapping atoms calculated
 number of electron      95.0000000 magnetization 
 keeping initial charge density in first step


--------------------------------------------------------------------------------------------------------


 Maximum index for augmentation-charges        23261 (set IRDMAX)


--------------------------------------------------------------------------------------------------------


 First call to EWALD:  gamma=   0.258
 Maximum number of real-space cells 6x 6x 1
 Maximum number of reciprocal cells 1x 1x14

 FEWALD executed in parallel
    FEWALD:  cpu time    0.00: real time    0.00


----------------------------------------- Iteration    1(   1)  ---------------------------------------


    POTLOK:  cpu time    0.11: real time    0.11
    SETDIJ:  cpu time    0.13: real time    0.13
     EDDAV:  cpu time    4.01: real time    4.06
       DOS:  cpu time    0.00: real time    0.00
    --------------------------------------------
      LOOP:  cpu time    4.25: real time    4.29

 eigenvalue-minimisations  :  2604
 total energy-change (2. order) : 0.4688325E+03  (-0.4152858E+04)
 number of electron      95.0000000 magnetization 
 augmentation part       95.0000000 magnetization 

 Free energy of the ion-electron system (eV)
  ---------------------------------------------------
  alpha Z        PSCENC =       124.61734341
  Ewald energy   TEWEN  =     12863.99627794
  -Hartree energ DENC   =    -17630.12826203
  -exchange      EXHF   =         0.00000000
  -V(xc)+E(xc)   XCENC  =      -418.78435501
  PAW double counting   =      4235.41334458    -3509.29226066
  entropy T*S    EENTRO =        -0.00395681
  eigenvalues    EBANDS =       306.65460738
  atomic energy  EATOM  =      4496.35971583
  ---------------------------------------------------
  free energy    TOTEN  =       468.83245462 eV

  energy without entropy =      468.83641143  energy(sigma->0) =      468.83443303


--------------------------------------------------------------------------------------------------------




----------------------------------------- Iteration    1(   2)  ---------------------------------------


     EDDAV:  cpu time    4.89: real time    4.90
       DOS:  cpu time    0.00: real time    0.00
    --------------------------------------------
      LOOP:  cpu time    4.89: real time    4.90

 eigenvalue-minimisations  :  3420
 total energy-change (2. order) :-0.5629856E+03  (-0.5346683E+03)
 number of electron      95.0000000 magnetization 
 augmentation part       95.0000000 magnetization 

 Free energy of the ion-electron system (eV)
  ---------------------------------------------------
  alpha Z        PSCENC =       124.61734341
  Ewald energy   TEWEN  =     12863.99627794
  -Hartree energ DENC   =    -17630.12826203
  -exchange      EXHF   =         0.00000000
  -V(xc)+E(xc)   XCENC  =      -418.78435501
  PAW double counting   =      4235.41334458    -3509.29226066
  entropy T*S    EENTRO =        -0.00459775
  eigenvalues    EBANDS =      -256.33031899
  atomic energy  EATOM  =      4496.35971583
  ---------------------------------------------------
  free energy    TOTEN  =       -94.15311269 eV

  energy without entropy =      -94.14851494  energy(sigma->0) =      -94.15081382


--------------------------------------------------------------------------------------------------------




----------------------------------------- Iteration    1(   3)  ---------------------------------------


     EDDAV:  cpu time    4.51: real time    4.51
       DOS:  cpu time    0.00: real time    0.00
    --------------------------------------------
      LOOP:  cpu time    4.51: real time    4.52

 eigenvalue-minimisations  :  3048
 total energy-change (2. order) :-0.5341102E+02  (-0.5310988E+02)
 number of electron      95.0000000 magnetization 
 augmentation part       95.0000000 magnetization 

 Free energy of the ion-electron system (eV)
  ---------------------------------------------------
  alpha Z        PSCENC =       124.61734341
  Ewald energy   TEWEN  =     12863.99627794
  -Hartree energ DENC   =    -17630.12826203
  -exchange      EXHF   =         0.00000000
  -V(xc)+E(xc)   XCENC  =      -418.78435501
  PAW double counting   =      4235.41334458    -3509.29226066
  entropy T*S    EENTRO =        -0.00358756
  eigenvalues    EBANDS =      -309.74235371
  atomic energy  EATOM  =      4496.35971583
  ---------------------------------------------------
  free energy    TOTEN  =      -147.56413722 eV

  energy without entropy =     -147.56054966  energy(sigma->0) =     -147.56234344


--------------------------------------------------------------------------------------------------------




----------------------------------------- Iteration    1(   4)  ---------------------------------------


     EDDAV:  cpu time    4.49: real time    4.49
       DOS:  cpu time    0.00: real time    0.00
    --------------------------------------------
      LOOP:  cpu time    4.49: real time    4.49

 eigenvalue-minimisations  :  3056
 total energy-change (2. order) :-0.6976941E+00  (-0.6965808E+00)
 number of electron      95.0000000 magnetization 
 augmentation part       95.0000000 magnetization 

 Free energy of the ion-electron system (eV)
  ---------------------------------------------------
  alpha Z        PSCENC =       124.61734341
  Ewald energy   TEWEN  =     12863.99627794
  -Hartree energ DENC   =    -17630.12826203
  -exchange      EXHF   =         0.00000000
  -V(xc)+E(xc)   XCENC  =      -418.78435501
  PAW double counting   =      4235.41334458    -3509.29226066
  entropy T*S    EENTRO =        -0.00357941
  eigenvalues    EBANDS =      -310.44005595
  atomic energy  EATOM  =      4496.35971583
  ---------------------------------------------------
  free energy    TOTEN  =      -148.26183130 eV

  energy without entropy =     -148.25825190  energy(sigma->0) =     -148.26004160


--------------------------------------------------------------------------------------------------------




----------------------------------------- Iteration    1(   5)  ---------------------------------------


     EDDAV:  cpu time    4.49: real time    4.50
       DOS:  cpu time    0.00: real time    0.00
    CHARGE:  cpu time    0.37: real time    0.37
    MIXING:  cpu time    0.00: real time    0.00
    --------------------------------------------
      LOOP:  cpu time    4.86: real time    4.87

 eigenvalue-minimisations  :  3060
 total energy-change (2. order) :-0.1096044E-01  (-0.1095660E-01)
 number of electron      95.0000001 magnetization 
 augmentation part        6.9300073 magnetization 

 Broyden mixing:
  rms(total) = 0.21941E+01    rms(broyden)= 0.21936E+01
  rms(prec ) = 0.22588E+01
  weight for this iteration     100.00

 Free energy of the ion-electron system (eV)
  ---------------------------------------------------
  alpha Z        PSCENC =       124.61734341
  Ewald energy   TEWEN  =     12863.99627794
  -Hartree energ DENC   =    -17630.12826203
  -exchange      EXHF   =         0.00000000
  -V(xc)+E(xc)   XCENC  =      -418.78435501
  PAW double counting   =      4235.41334458    -3509.29226066
  entropy T*S    EENTRO =        -0.00358152
  eigenvalues    EBANDS =      -310.45101427
  atomic energy  EATOM  =      4496.35971583
  ---------------------------------------------------
  free energy    TOTEN  =      -148.27279174 eV

  energy without entropy =     -148.26921023  energy(sigma->0) =     -148.27100098


--------------------------------------------------------------------------------------------------------




----------------------------------------- Iteration    1(   6)  ---------------------------------------


    POTLOK:  cpu time    0.10: real time    0.10
    SETDIJ:  cpu time    0.11: real time    0.11
     EDDAV:  cpu time    4.34: real time    4.34
       DOS:  cpu time    0.00: real time    0.00
    CHARGE:  cpu time    0.36: real time    0.36
    MIXING:  cpu time    0.01: real time    0.01
    --------------------------------------------
      LOOP:  cpu time    4.92: real time    4.93

 eigenvalue-minimisations  :  2892
 total energy-change (2. order) : 0.1468649E+02  (-0.8358640E+01)
 number of electron      95.0000001 magnetization 
 augmentation part        5.6007396 magnetization 

 Broyden mixing:
  rms(total) = 0.74773E+00    rms(broyden)= 0.74676E+00
  rms(prec ) = 0.75542E+00
  weight for this iteration     100.00

 eigenvalues of (default mixing * dielectric matrix)
  average eigenvalue GAMMA=   0.8396
  0.8396

 Free energy of the ion-electron system (eV)
  ---------------------------------------------------
  alpha Z        PSCENC =       124.61734341
  Ewald energy   TEWEN  =     12863.99627794
  -Hartree energ DENC   =    -17801.16879944
  -exchange      EXHF   =         0.00000000
  -V(xc)+E(xc)   XCENC  =      -406.61050944
  PAW double counting   =      5039.06591448    -4316.09724633
  entropy T*S    EENTRO =        -0.00371092
  eigenvalues    EBANDS =      -133.74528957
  atomic energy  EATOM  =      4496.35971583
  ---------------------------------------------------
  free energy    TOTEN  =      -133.58630405 eV

  energy without entropy =     -133.58259313  energy(sigma->0) =     -133.58444859


--------------------------------------------------------------------------------------------------------




----------------------------------------- Iteration    1(   7)  ---------------------------------------


    POTLOK:  cpu time    0.10: real time    0.10
    SETDIJ:  cpu time    0.11: real time    0.11
     EDDAV:  cpu time    4.20: real time    4.20
       DOS:  cpu time    0.00: real time    0.00
    CHARGE:  cpu time    0.35: real time    0.35
    MIXING:  cpu time    0.00: real time    0.00
    --------------------------------------------
      LOOP:  cpu time    4.77: real time    4.77

 eigenvalue-minimisations  :  2900
 total energy-change (2. order) : 0.1764592E+00  (-0.1358540E+00)
 number of electron      95.0000001 magnetization 
 augmentation part        5.6503412 magnetization 

 Broyden mixing:
  rms(total) = 0.45150E+00    rms(broyden)= 0.45148E+00
  rms(prec ) = 0.45789E+00
  weight for this iteration     100.00

 eigenvalues of (default mixing * dielectric matrix)
  average eigenvalue GAMMA=   1.6462
  0.9665  2.3260

 Free energy of the ion-electron system (eV)
  ---------------------------------------------------
  alpha Z        PSCENC =       124.61734341
  Ewald energy   TEWEN  =     12863.99627794
  -Hartree energ DENC   =    -17797.88349816
  -exchange      EXHF   =         0.00000000
  -V(xc)+E(xc)   XCENC  =      -406.26571669
  PAW double counting   =      5323.89219828    -4600.50594496
  entropy T*S    EENTRO =        -0.00431334
  eigenvalues    EBANDS =      -137.61590712
  atomic energy  EATOM  =      4496.35971583
  ---------------------------------------------------
  free energy    TOTEN  =      -133.40984482 eV

  energy without entropy =     -133.40553147  energy(sigma->0) =     -133.40768815


--------------------------------------------------------------------------------------------------------




----------------------------------------- Iteration    1(   8)  ---------------------------------------


    POTLOK:  cpu time    0.10: real time    0.10
    SETDIJ:  cpu time    0.10: real time    0.10
     EDDAV:  cpu time    4.63: real time    4.63
       DOS:  cpu time    0.00: real time    0.00
    CHARGE:  cpu time    0.38: real time    0.38
    MIXING:  cpu time    0.01: real time    0.01
    --------------------------------------------
      LOOP:  cpu time    5.21: real time    5.22

 eigenvalue-minimisations  :  3064
 total energy-change (2. order) : 0.9534640E-01  (-0.4976937E-01)
 number of electron      95.0000001 magnetization 
 augmentation part        5.6879865 magnetization 

 Broyden mixing:
  rms(total) = 0.77995E-01    rms(broyden)= 0.77962E-01
  rms(prec ) = 0.99282E-01
  weight for this iteration     100.00

 eigenvalues of (default mixing * dielectric matrix)
  average eigenvalue GAMMA=   1.3897
  2.4307  0.8859  0.8524

 Free energy of the ion-electron system (eV)
  ---------------------------------------------------
  alpha Z        PSCENC =       124.61734341
  Ewald energy   TEWEN  =     12863.99627794
  -Hartree energ DENC   =    -17802.54802312
  -exchange      EXHF   =         0.00000000
  -V(xc)+E(xc)   XCENC  =      -404.74830802
  PAW double counting   =      5831.30760455    -5107.65322208
  entropy T*S    EENTRO =        -0.00473626
  eigenvalues    EBANDS =      -134.64115065
  atomic energy  EATOM  =      4496.35971583
  ---------------------------------------------------
  free energy    TOTEN  =      -133.31449841 eV

  energy without entropy =     -133.30976215  energy(sigma->0) =     -133.31213028


--------------------------------------------------------------------------------------------------------




----------------------------------------- Iteration    1(   9)  ---------------------------------------


    POTLOK:  cpu time    0.11: real time    0.11
    SETDIJ:  cpu time    0.11: real time    0.11
     EDDAV:  cpu time    4.38: real time    4.39
       DOS:  cpu time    0.00: real time    0.00
    CHARGE:  cpu time    0.36: real time    0.36
    MIXING:  cpu time    0.01: real time    0.01
    --------------------------------------------
      LOOP:  cpu time    4.97: real time    4.98

 eigenvalue-minimisations  :  2942
 total energy-change (2. order) : 0.2318385E-01  (-0.1051423E-01)
 number of electron      95.0000001 magnetization 
 augmentation part        5.6740781 magnetization 

 Broyden mixing:
  rms(total) = 0.49165E-01    rms(broyden)= 0.49164E-01
  rms(prec ) = 0.51516E-01
  weight for this iteration     100.00

 eigenvalues of (default mixing * dielectric matrix)
  average eigenvalue GAMMA=   1.4034
  2.4538  0.8257  0.9497  1.3845

 Free energy of the ion-electron system (eV)
  ---------------------------------------------------
  alpha Z        PSCENC =       124.61734341
  Ewald energy   TEWEN  =     12863.99627794
  -Hartree energ DENC   =    -17805.21783255
  -exchange      EXHF   =         0.00000000
  -V(xc)+E(xc)   XCENC  =      -404.42768732
  PAW double counting   =      5856.41181841    -5132.78644124
  entropy T*S    EENTRO =        -0.00517864
  eigenvalues    EBANDS =      -132.23933040
  atomic energy  EATOM  =      4496.35971583
  ---------------------------------------------------
  free energy    TOTEN  =      -133.29131456 eV

  energy without entropy =     -133.28613592  energy(sigma->0) =     -133.28872524


--------------------------------------------------------------------------------------------------------




----------------------------------------- Iteration    1(  10)  ---------------------------------------


    POTLOK:  cpu time    0.10: real time    0.10
    SETDIJ:  cpu time    0.11: real time    0.11
     EDDAV:  cpu time    4.49: real time    4.50
       DOS:  cpu time    0.00: real time    0.00
    CHARGE:  cpu time    0.36: real time    0.36
    MIXING:  cpu time    0.01: real time    0.01
    --------------------------------------------
      LOOP:  cpu time    5.08: real time    5.08

 eigenvalue-minimisations  :  3034
 total energy-change (2. order) : 0.1582998E-02  (-0.3889682E-02)
 number of electron      95.0000001 magnetization 
 augmentation part        5.6565549 magnetization 

 Broyden mixing:
  rms(total) = 0.25239E-01    rms(broyden)= 0.25222E-01
  rms(prec ) = 0.27180E-01
  weight for this iteration     100.00

 eigenvalues of (default mixing * dielectric matrix)
  average eigenvalue GAMMA=   1.2920
  2.4822  1.7547  0.8880  0.8880  0.4471

 Free energy of the ion-electron system (eV)
  ---------------------------------------------------
  alpha Z        PSCENC =       124.61734341
  Ewald energy   TEWEN  =     12863.99627794
  -Hartree energ DENC   =    -17806.59842516
  -exchange      EXHF   =         0.00000000
  -V(xc)+E(xc)   XCENC  =      -404.24471165
  PAW double counting   =      5841.64849021    -5118.05444020
  entropy T*S    EENTRO =        -0.00508440
  eigenvalues    EBANDS =      -131.00889753
  atomic energy  EATOM  =      4496.35971583
  ---------------------------------------------------
  free energy    TOTEN  =      -133.28973156 eV

  energy without entropy =     -133.28464716  energy(sigma->0) =     -133.28718936


--------------------------------------------------------------------------------------------------------




----------------------------------------- Iteration    1(  11)  ---------------------------------------


    POTLOK:  cpu time    0.10: real time    0.10
    SETDIJ:  cpu time    0.11: real time    0.11
     EDDAV:  cpu time    4.41: real time    4.41
       DOS:  cpu time    0.00: real time    0.00
    CHARGE:  cpu time    0.36: real time    0.36
    MIXING:  cpu time    0.01: real time    0.01
    --------------------------------------------
      LOOP:  cpu time    4.99: real time    5.00

 eigenvalue-minimisations  :  2980
 total energy-change (2. order) : 0.2539278E-03  (-0.3315644E-03)
 number of electron      95.0000001 magnetization 
 augmentation part        5.6602989 magnetization 

 Broyden mixing:
  rms(total) = 0.15526E-01    rms(broyden)= 0.15525E-01
  rms(prec ) = 0.18131E-01
  weight for this iteration     100.00

 eigenvalues of (default mixing * dielectric matrix)
  average eigenvalue GAMMA=   1.4559
  2.8382  2.3353  1.0181  0.9537  0.9537  0.6360

 Free energy of the ion-electron system (eV)
  ---------------------------------------------------
  alpha Z        PSCENC =       124.61734341
  Ewald energy   TEWEN  =     12863.99627794
  -Hartree energ DENC   =    -17805.91055609
  -exchange      EXHF   =         0.00000000
  -V(xc)+E(xc)   XCENC  =      -404.23267168
  PAW double counting   =      5823.42516781    -5099.82780441
  entropy T*S    EENTRO =        -0.00508688
  eigenvalues    EBANDS =      -131.71186356
  atomic energy  EATOM  =      4496.35971583
  ---------------------------------------------------
  free energy    TOTEN  =      -133.28947763 eV

  energy without entropy =     -133.28439075  energy(sigma->0) =     -133.28693419


--------------------------------------------------------------------------------------------------------




----------------------------------------- Iteration    1(  12)  ---------------------------------------


    POTLOK:  cpu time    0.10: real time    0.10
    SETDIJ:  cpu time    0.11: real time    0.11
     EDDAV:  cpu time    4.61: real time    4.62
       DOS:  cpu time    0.00: real time    0.00
    CHARGE:  cpu time    0.36: real time    0.36
    MIXING:  cpu time    0.01: real time    0.01
    --------------------------------------------
      LOOP:  cpu time    5.19: real time    5.20

 eigenvalue-minimisations  :  3138
 total energy-change (2. order) : 0.5800738E-03  (-0.3332182E-03)
 number of electron      95.0000001 magnetization 
 augmentation part        5.6601215 magnetization 

 Broyden mixing:
  rms(total) = 0.70867E-02    rms(broyden)= 0.70832E-02
  rms(prec ) = 0.10122E-01
  weight for this iteration     100.00

 eigenvalues of (default mixing * dielectric matrix)
  average eigenvalue GAMMA=   1.3766
  2.9243  2.4609  0.9325  0.9325  0.8875  0.8875  0.6106

 Free energy of the ion-electron system (eV)
  ---------------------------------------------------
  alpha Z        PSCENC =       124.61734341
  Ewald energy   TEWEN  =     12863.99627794
  -Hartree energ DENC   =    -17805.20551990
  -exchange      EXHF   =         0.00000000
  -V(xc)+E(xc)   XCENC  =      -404.17859214
  PAW double counting   =      5794.47195676    -5070.88695146
  entropy T*S    EENTRO =        -0.00511997
  eigenvalues    EBANDS =      -132.45800802
  atomic energy  EATOM  =      4496.35971583
  ---------------------------------------------------
  free energy    TOTEN  =      -133.28889756 eV

  energy without entropy =     -133.28377758  energy(sigma->0) =     -133.28633757


--------------------------------------------------------------------------------------------------------




----------------------------------------- Iteration    1(  13)  ---------------------------------------


    POTLOK:  cpu time    0.10: real time    0.10
    SETDIJ:  cpu time    0.11: real time    0.11
     EDDAV:  cpu time    4.47: real time    4.48
       DOS:  cpu time    0.00: real time    0.00
    CHARGE:  cpu time    0.36: real time    0.36
    MIXING:  cpu time    0.01: real time    0.01
    --------------------------------------------
      LOOP:  cpu time    5.05: real time    5.06

 eigenvalue-minimisations  :  3036
 total energy-change (2. order) : 0.2496361E-03  (-0.7353434E-04)
 number of electron      95.0000001 magnetization 
 augmentation part        5.6619724 magnetization 

 Broyden mixing:
  rms(total) = 0.61274E-02    rms(broyden)= 0.61265E-02
  rms(prec ) = 0.90360E-02
  weight for this iteration     100.00

 eigenvalues of (default mixing * dielectric matrix)
  average eigenvalue GAMMA=   1.3598
  2.9429  2.5682  0.9726  0.9726  1.0507  1.0507  0.6605  0.6605

 Free energy of the ion-electron system (eV)
  ---------------------------------------------------
  alpha Z        PSCENC =       124.61734341
  Ewald energy   TEWEN  =     12863.99627794
  -Hartree energ DENC   =    -17804.71833990
  -exchange      EXHF   =         0.00000000
  -V(xc)+E(xc)   XCENC  =      -404.19258239
  PAW double counting   =      5789.89780027    -5066.30958603
  entropy T*S    EENTRO =        -0.00512198
  eigenvalues    EBANDS =      -132.93415507
  atomic energy  EATOM  =      4496.35971583
  ---------------------------------------------------
  free energy    TOTEN  =      -133.28864792 eV

  energy without entropy =     -133.28352594  energy(sigma->0) =     -133.28608693


--------------------------------------------------------------------------------------------------------




----------------------------------------- Iteration    1(  14)  ---------------------------------------


    POTLOK:  cpu time    0.10: real time    0.10
    SETDIJ:  cpu time    0.11: real time    0.11
     EDDAV:  cpu time    5.41: real time    5.42
       DOS:  cpu time    0.00: real time    0.00
    CHARGE:  cpu time    0.37: real time    0.37
    MIXING:  cpu time    0.01: real time    0.01
    --------------------------------------------
      LOOP:  cpu time    6.00: real time    6.01

 eigenvalue-minimisations  :  3884
 total energy-change (2. order) : 0.4027789E-03  (-0.7486656E-04)
 number of electron      95.0000001 magnetization 
 augmentation part        5.6632710 magnetization 

 Broyden mixing:
  rms(total) = 0.35831E-02    rms(broyden)= 0.35815E-02
  rms(prec ) = 0.65453E-02
  weight for this iteration     100.00

 eigenvalues of (default mixing * dielectric matrix)
  average eigenvalue GAMMA=   1.3951
  2.9077  2.3995  2.0164  0.9270  0.9270  0.9766  0.9766  0.6314  0.7933

 Free energy of the ion-electron system (eV)
  ---------------------------------------------------
  alpha Z        PSCENC =       124.61734341
  Ewald energy   TEWEN  =     12863.99627794
  -Hartree energ DENC   =    -17804.04423475
  -exchange      EXHF   =         0.00000000
  -V(xc)+E(xc)   XCENC  =      -404.20472924
  PAW double counting   =      5786.47807369    -5062.88755917
  entropy T*S    EENTRO =        -0.00512464
  eigenvalues    EBANDS =      -133.59800822
  atomic energy  EATOM  =      4496.35971583
  ---------------------------------------------------
  free energy    TOTEN  =      -133.28824514 eV

  energy without entropy =     -133.28312051  energy(sigma->0) =     -133.28568283


--------------------------------------------------------------------------------------------------------




----------------------------------------- Iteration    1(  15)  ---------------------------------------


    POTLOK:  cpu time    0.11: real time    0.11
    SETDIJ:  cpu time    0.11: real time    0.11
     EDDAV:  cpu time    4.62: real time    4.63
       DOS:  cpu time    0.00: real time    0.00
    CHARGE:  cpu time    0.36: real time    0.36
    MIXING:  cpu time    0.00: real time    0.00
    --------------------------------------------
      LOOP:  cpu time    5.21: real time    5.22

 eigenvalue-minimisations  :  3228
 total energy-change (2. order) : 0.3023894E-03  (-0.3419838E-04)
 number of electron      95.0000001 magnetization 
 augmentation part        5.6619507 magnetization 

 Broyden mixing:
  rms(total) = 0.21192E-02    rms(broyden)= 0.21183E-02
  rms(prec ) = 0.49295E-02
  weight for this iteration     100.00

 eigenvalues of (default mixing * dielectric matrix)
  average eigenvalue GAMMA=   1.5152
  3.3285  2.8735  2.3425  1.3468  0.9809  0.9809  0.9663  0.9663  0.6350  0.7318

 Free energy of the ion-electron system (eV)
  ---------------------------------------------------
  alpha Z        PSCENC =       124.61734341
  Ewald energy   TEWEN  =     12863.99627794
  -Hartree energ DENC   =    -17803.70252659
  -exchange      EXHF   =         0.00000000
  -V(xc)+E(xc)   XCENC  =      -404.19214523
  PAW double counting   =      5789.29063245    -5065.70208443
  entropy T*S    EENTRO =        -0.00513123
  eigenvalues    EBANDS =      -133.95002490
  atomic energy  EATOM  =      4496.35971583
  ---------------------------------------------------
  free energy    TOTEN  =      -133.28794275 eV

  energy without entropy =     -133.28281152  energy(sigma->0) =     -133.28537714


--------------------------------------------------------------------------------------------------------




----------------------------------------- Iteration    1(  16)  ---------------------------------------


    POTLOK:  cpu time    0.10: real time    0.10
    SETDIJ:  cpu time    0.10: real time    0.10
     EDDAV:  cpu time    5.38: real time    5.39
       DOS:  cpu time    0.00: real time    0.00
    CHARGE:  cpu time    0.36: real time    0.36
    MIXING:  cpu time    0.01: real time    0.01
    --------------------------------------------
      LOOP:  cpu time    5.96: real time    5.97

 eigenvalue-minimisations  :  3798
 total energy-change (2. order) : 0.4483795E-03  (-0.3181228E-04)
 number of electron      95.0000001 magnetization 
 augmentation part        5.6621216 magnetization 

 Broyden mixing:
  rms(total) = 0.15590E-02    rms(broyden)= 0.15585E-02
  rms(prec ) = 0.34946E-02
  weight for this iteration     100.00

 eigenvalues of (default mixing * dielectric matrix)
  average eigenvalue GAMMA=   1.6080
  4.3829  2.9459  2.4100  1.7681  0.9593  0.9593  0.9816  0.9816  0.9198  0.6361
  0.7433

 Free energy of the ion-electron system (eV)
  ---------------------------------------------------
  alpha Z        PSCENC =       124.61734341
  Ewald energy   TEWEN  =     12863.99627794
  -Hartree energ DENC   =    -17802.66662626
  -exchange      EXHF   =         0.00000000
  -V(xc)+E(xc)   XCENC  =      -404.19206193
  PAW double counting   =      5788.73601371    -5065.14607882
  entropy T*S    EENTRO =        -0.00515895
  eigenvalues    EBANDS =      -134.98691931
  atomic energy  EATOM  =      4496.35971583
  ---------------------------------------------------
  free energy    TOTEN  =      -133.28749438 eV

  energy without entropy =     -133.28233543  energy(sigma->0) =     -133.28491490


--------------------------------------------------------------------------------------------------------




----------------------------------------- Iteration    1(  17)  ---------------------------------------


    POTLOK:  cpu time    0.10: real time    0.10
    SETDIJ:  cpu time    0.11: real time    0.11
     EDDAV:  cpu time    4.37: real time    4.38
       DOS:  cpu time    0.00: real time    0.00
    CHARGE:  cpu time    0.36: real time    0.36
    MIXING:  cpu time    0.01: real time    0.01
    --------------------------------------------
      LOOP:  cpu time    4.96: real time    4.96

 eigenvalue-minimisations  :  2954
 total energy-change (2. order) : 0.1980101E-03  (-0.3417520E-04)
 number of electron      95.0000001 magnetization 
 augmentation part        5.6621759 magnetization 

 Broyden mixing:
  rms(total) = 0.19864E-02    rms(broyden)= 0.19860E-02
  rms(prec ) = 0.29655E-02
  weight for this iteration     100.00

 eigenvalues of (default mixing * dielectric matrix)
  average eigenvalue GAMMA=   1.5479
  4.8301  2.9381  2.4177  1.7933  0.9579  0.9579  1.0574  0.9288  0.9288  0.6371
  0.7434  0.3842

 Free energy of the ion-electron system (eV)
  ---------------------------------------------------
  alpha Z        PSCENC =       124.61734341
  Ewald energy   TEWEN  =     12863.99627794
  -Hartree energ DENC   =    -17801.97003968
  -exchange      EXHF   =         0.00000000
  -V(xc)+E(xc)   XCENC  =      -404.19124773
  PAW double counting   =      5789.22396353    -5065.63330899
  entropy T*S    EENTRO =        -0.00517400
  eigenvalues    EBANDS =      -135.68482666
  atomic energy  EATOM  =      4496.35971583
  ---------------------------------------------------
  free energy    TOTEN  =      -133.28729637 eV

  energy without entropy =     -133.28212236  energy(sigma->0) =     -133.28470936


--------------------------------------------------------------------------------------------------------




----------------------------------------- Iteration    1(  18)  ---------------------------------------


    POTLOK:  cpu time    0.10: real time    0.10
    SETDIJ:  cpu time    0.11: real time    0.11
     EDDAV:  cpu time    5.22: real time    5.23
       DOS:  cpu time    0.00: real time    0.00
    CHARGE:  cpu time    0.36: real time    0.36
    MIXING:  cpu time    0.01: real time    0.01
    --------------------------------------------
      LOOP:  cpu time    5.80: real time    5.81

 eigenvalue-minimisations  :  3764
 total energy-change (2. order) : 0.1301154E-03  (-0.2748928E-04)
 number of electron      95.0000001 magnetization 
 augmentation part        5.6621235 magnetization 

 Broyden mixing:
  rms(total) = 0.11450E-02    rms(broyden)= 0.11443E-02
  rms(prec ) = 0.17763E-02
  weight for this iteration     100.00

 eigenvalues of (default mixing * dielectric matrix)
  average eigenvalue GAMMA=   1.6578
  5.6417  3.0267  2.3945  2.2449  1.0082  1.0082  0.9724  0.9724  1.0442  0.9335
  0.9335  0.6351  0.7367

 Free energy of the ion-electron system (eV)
  ---------------------------------------------------
  alpha Z        PSCENC =       124.61734341
  Ewald energy   TEWEN  =     12863.99627794
  -Hartree energ DENC   =    -17801.41754648
  -exchange      EXHF   =         0.00000000
  -V(xc)+E(xc)   XCENC  =      -404.18787102
  PAW double counting   =      5790.09772134    -5066.50726666
  entropy T*S    EENTRO =        -0.00517724
  eigenvalues    EBANDS =      -136.24036337
  atomic energy  EATOM  =      4496.35971583
  ---------------------------------------------------
  free energy    TOTEN  =      -133.28716625 eV

  energy without entropy =     -133.28198901  energy(sigma->0) =     -133.28457763


--------------------------------------------------------------------------------------------------------




----------------------------------------- Iteration    1(  19)  ---------------------------------------


    POTLOK:  cpu time    0.10: real time    0.10
    SETDIJ:  cpu time    0.11: real time    0.11
     EDDAV:  cpu time    4.54: real time    4.54
       DOS:  cpu time    0.00: real time    0.00
    CHARGE:  cpu time    0.37: real time    0.37
    MIXING:  cpu time    0.01: real time    0.01
    --------------------------------------------
      LOOP:  cpu time    5.12: real time    5.13

 eigenvalue-minimisations  :  3060
 total energy-change (2. order) : 0.4481082E-04  (-0.3418810E-04)
 number of electron      95.0000001 magnetization 
 augmentation part        5.6615780 magnetization 

 Broyden mixing:
  rms(total) = 0.18822E-02    rms(broyden)= 0.18812E-02
  rms(prec ) = 0.20613E-02
  weight for this iteration     100.00

 eigenvalues of (default mixing * dielectric matrix)
  average eigenvalue GAMMA=   1.7911
  6.7219  3.7514  2.6959  2.4270  1.3324  1.3324  0.9996  0.9996  0.9747  0.9596
  0.9596  0.6347  0.7547  0.5318

 Free energy of the ion-electron system (eV)
  ---------------------------------------------------
  alpha Z        PSCENC =       124.61734341
  Ewald energy   TEWEN  =     12863.99627794
  -Hartree energ DENC   =    -17801.14295750
  -exchange      EXHF   =         0.00000000
  -V(xc)+E(xc)   XCENC  =      -404.18425630
  PAW double counting   =      5790.20009982    -5066.61102996
  entropy T*S    EENTRO =        -0.00517516
  eigenvalues    EBANDS =      -136.51713954
  atomic energy  EATOM  =      4496.35971583
  ---------------------------------------------------
  free energy    TOTEN  =      -133.28712144 eV

  energy without entropy =     -133.28194628  energy(sigma->0) =     -133.28453386


--------------------------------------------------------------------------------------------------------




----------------------------------------- Iteration    1(  20)  ---------------------------------------


    POTLOK:  cpu time    0.11: real time    0.11
    SETDIJ:  cpu time    0.11: real time    0.11
     EDDAV:  cpu time    4.76: real time    4.77
       DOS:  cpu time    0.00: real time    0.00
    CHARGE:  cpu time    0.36: real time    0.36
    MIXING:  cpu time    0.01: real time    0.01
    --------------------------------------------
      LOOP:  cpu time    5.35: real time    5.36

 eigenvalue-minimisations  :  3314
 total energy-change (2. order) : 0.3724588E-04  (-0.1276130E-04)
 number of electron      95.0000001 magnetization 
 augmentation part        5.6616901 magnetization 

 Broyden mixing:
  rms(total) = 0.67603E-03    rms(broyden)= 0.67555E-03
  rms(prec ) = 0.76349E-03
  weight for this iteration     100.00

 eigenvalues of (default mixing * dielectric matrix)
  average eigenvalue GAMMA=   1.9075
  9.2500  3.5297  2.8610  2.4230  1.4889  1.4889  0.9984  0.9984  1.0018  0.9420
  0.9420  0.6323  0.7072  0.6744  0.6744

 Free energy of the ion-electron system (eV)
  ---------------------------------------------------
  alpha Z        PSCENC =       124.61734341
  Ewald energy   TEWEN  =     12863.99627794
  -Hartree energ DENC   =    -17800.85069875
  -exchange      EXHF   =         0.00000000
  -V(xc)+E(xc)   XCENC  =      -404.18513333
  PAW double counting   =      5790.69409711    -5067.10435769
  entropy T*S    EENTRO =        -0.00518512
  eigenvalues    EBANDS =      -136.80914359
  atomic energy  EATOM  =      4496.35971583
  ---------------------------------------------------
  free energy    TOTEN  =      -133.28708419 eV

  energy without entropy =     -133.28189907  energy(sigma->0) =     -133.28449163


--------------------------------------------------------------------------------------------------------




----------------------------------------- Iteration    1(  21)  ---------------------------------------


    POTLOK:  cpu time    0.10: real time    0.10
    SETDIJ:  cpu time    0.11: real time    0.11
     EDDAV:  cpu time    4.17: real time    4.17
       DOS:  cpu time    0.00: real time    0.00
    CHARGE:  cpu time    0.36: real time    0.36
    MIXING:  cpu time    0.01: real time    0.01
    --------------------------------------------
      LOOP:  cpu time    4.75: real time    4.75

 eigenvalue-minimisations  :  2752
 total energy-change (2. order) :-0.1086539E-04  (-0.1555495E-04)
 number of electron      95.0000001 magnetization 
 augmentation part        5.6617348 magnetization 

 Broyden mixing:
  rms(total) = 0.11426E-02    rms(broyden)= 0.11423E-02
  rms(prec ) = 0.11791E-02
  weight for this iteration     100.00

 eigenvalues of (default mixing * dielectric matrix)
  average eigenvalue GAMMA=   1.8536
  9.6702  3.5620  2.9050  2.3968  1.4914  1.4914  1.0109  1.0109  1.0503  0.9425
  0.9425  0.7033  0.6339  0.6844  0.6844  0.4771

 Free energy of the ion-electron system (eV)
  ---------------------------------------------------
  alpha Z        PSCENC =       124.61734341
  Ewald energy   TEWEN  =     12863.99627794
  -Hartree energ DENC   =    -17800.81681120
  -exchange      EXHF   =         0.00000000
  -V(xc)+E(xc)   XCENC  =      -404.18465682
  PAW double counting   =      5790.14524490    -5066.55553343
  entropy T*S    EENTRO =        -0.00518712
  eigenvalues    EBANDS =      -136.84348857
  atomic energy  EATOM  =      4496.35971583
  ---------------------------------------------------
  free energy    TOTEN  =      -133.28709506 eV

  energy without entropy =     -133.28190794  energy(sigma->0) =     -133.28450150


--------------------------------------------------------------------------------------------------------




----------------------------------------- Iteration    1(  22)  ---------------------------------------


    POTLOK:  cpu time    0.10: real time    0.10
    SETDIJ:  cpu time    0.10: real time    0.10
     EDDAV:  cpu time    3.03: real time    3.04
       DOS:  cpu time    0.00: real time    0.00
    --------------------------------------------
      LOOP:  cpu time    3.24: real time    3.25

 eigenvalue-minimisations  :  1686
 total energy-change (2. order) : 0.1312280E-05  (-0.1173271E-05)
 number of electron      95.0000001 magnetization 
 augmentation part        5.6617348 magnetization 

 Free energy of the ion-electron system (eV)
  ---------------------------------------------------
  alpha Z        PSCENC =       124.61734341
  Ewald energy   TEWEN  =     12863.99627794
  -Hartree energ DENC   =    -17800.81777125
  -exchange      EXHF   =         0.00000000
  -V(xc)+E(xc)   XCENC  =      -404.18461685
  PAW double counting   =      5790.15933249    -5066.56988731
  entropy T*S    EENTRO =        -0.00518324
  eigenvalues    EBANDS =      -136.84230476
  atomic energy  EATOM  =      4496.35971583
  ---------------------------------------------------
  free energy    TOTEN  =      -133.28709375 eV

  energy without entropy =     -133.28191051  energy(sigma->0) =     -133.28450213


--------------------------------------------------------------------------------------------------------




 average (electrostatic) potential at core
  the test charge radii are     0.7215  1.0714  1.0406
  (the norm of the test charge is              1.0000)
       1 -70.0752       2 -70.0664       3 -70.0795       4 -70.0883       5 -70.0934
       6 -70.1956       7 -70.1951       8 -70.0715       9 -70.0922      10 -35.7353
      11 -35.6632      12 -35.6958      13 -35.7340      14 -35.6689      15 -35.6856
      16 -35.7210      17 -35.7082      18 -35.6721      19 -35.7016      20 -74.0116
      21 -73.9709      22 -74.0099      23 -73.9613      24 -73.9703      25 -73.9625
      26 -74.0111
 
 
 
 E-fermi :   6.6796     XC(G=0): -10.3204     alpha+bet :-12.6424


 k-point     1 :       0.0000    0.0000    0.0000
  band No.  band energies     occupation 
      1     -14.3789      2.00000
      2     -14.3144      2.00000
      3     -14.2097      2.00000
      4     -14.0684      2.00000
      5     -13.8996      2.00000
      6     -13.7197      2.00000
      7     -13.5464      2.00000
      8     -13.4008      2.00000
      9     -13.3003      2.00000
     10      -3.8496      2.00000
     11      -3.4661      2.00000
     12      -2.8768      2.00000
     13      -2.0784      2.00000
     14      -1.7982      2.00000
     15      -1.6521      2.00000
     16      -1.2962      2.00000
     17      -1.1306      2.00000
     18      -0.7015      2.00000
     19      -0.3856      2.00000
     20       0.3053      2.00000
     21       0.3424      2.00000
     22       1.1278      2.00000
     23       1.4476      2.00000
     24       1.9905      2.00000
     25       2.1703      2.00000
     26       2.1703      2.00000
     27       2.2039      2.00000
     28       2.2039      2.00000
     29       2.2570      2.00000
     30       2.2570      2.00000
     31       2.2731      2.00000
     32       2.3294      2.00000
     33       2.3294      2.00000
     34       2.4163      2.00000
     35       2.4163      2.00000
     36       2.5073      2.00000
     37       2.5073      2.00000
     38       2.5942      2.00000
     39       2.5942      2.00000
     40       2.6655      2.00000
     41       2.6655      2.00000
     42       2.7150      2.00000
     43       2.7150      2.00000
     44       2.7922      2.00000
     45       4.2247      2.00000
     46       5.3591      2.00000
     47       6.5862      1.99176
     48       7.3039      0.00000
     49       7.5415      0.00000
     50       8.3048      0.00000
     51       8.4295      0.00000
     52       9.3518      0.00000
     53       9.3871      0.00000
     54      10.0776      0.00000
     55      10.1786      0.00000
     56      10.4446      0.00000
     57      10.4885      0.00000
     58      11.4526      0.00000
     59      12.9827      0.00000
     60      14.4455      0.00000
     61      14.4958      0.00000
     62      14.5071      0.00000

 k-point     2 :       0.0769    0.0000   -0.0000
  band No.  band energies     occupation 
      1     -14.3259      2.00000
      2     -14.2630      2.00000
      3     -14.1608      2.00000
      4     -14.0230      2.00000
      5     -13.8584      2.00000
      6     -13.6833      2.00000
      7     -13.5148      2.00000
      8     -13.3733      2.00000
      9     -13.2759      2.00000
     10      -3.7194      2.00000
     11      -3.3363      2.00000
     12      -2.7476      2.00000
     13      -1.9533      2.00000
     14      -1.7160      2.00000
     15      -1.5729      2.00000
     16      -1.2298      2.00000
     17      -1.0355      2.00000
     18      -0.6329      2.00000
     19      -0.3479      2.00000
     20       0.3355      2.00000
     21       0.3849      2.00000
     22       1.0787      2.00000
     23       1.4248      2.00000
     24       1.9366      2.00000
     25       1.9516      2.00000
     26       1.9866      2.00000
     27       2.0328      2.00000
     28       2.0831      2.00000
     29       2.1262      2.00000
     30       2.1429      2.00000
     31       2.1602      2.00000
     32       2.2138      2.00000
     33       2.2434      2.00000
     34       2.2868      2.00000
     35       2.3269      2.00000
     36       2.3744      2.00000
     37       2.3924      2.00000
     38       2.4662      2.00000
     39       2.4702      2.00000
     40       2.5192      2.00000
     41       2.5539      2.00000
     42       2.6258      2.00000
     43       2.6758      2.00000
     44       2.8931      2.00000
     45       4.3589      2.00000
     46       5.5087      2.00000
     47       6.7806      0.00428
     48       7.6076      0.00000
     49       7.8058      0.00000
     50       8.5002      0.00000
     51       8.6541      0.00000
     52       9.5500      0.00000
     53       9.5967      0.00000
     54      10.3149      0.00000
     55      10.4086      0.00000
     56      10.7222      0.00000
     57      10.7365      0.00000
     58      11.5741      0.00000
     59      12.9833      0.00000
     60      13.9151      0.00000
     61      14.1541      0.00000
     62      14.4096      0.00000

 k-point     3 :       0.1538   -0.0000   -0.0000
  band No.  band energies     occupation 
      1     -14.1738      2.00000
      2     -14.1156      2.00000
      3     -14.0214      2.00000
      4     -13.8941      2.00000
[...]
     58       9.7535      0.00000
     59      10.2536      0.00000
     60      10.8271      0.00000
     61      10.9948      0.00000
     62      11.3926      0.00000

 k-point    19 :       0.3077    0.2308    0.0000
  band No.  band energies     occupation 
      1     -13.2211      2.00000
      2     -13.2121      2.00000
      3     -13.1891      2.00000
      4     -13.1538      2.00000
      5     -13.1157      2.00000
      6     -13.0735      2.00000
      7     -13.0356      2.00000
      8     -13.0014      2.00000
      9     -12.9782      2.00000
     10      -1.1777      2.00000
     11      -1.0826      2.00000
     12      -0.9489      2.00000
     13      -0.9327      2.00000
     14      -0.8784      2.00000
     15      -0.8192      2.00000
     16      -0.7663      2.00000
     17      -0.6179      2.00000
     18      -0.4649      2.00000
     19      -0.0514      2.00000
     20       0.1000      2.00000
     21       0.2461      2.00000
     22       0.4252      2.00000
     23       0.5424      2.00000
     24       0.6157      2.00000
     25       0.6487      2.00000
     26       0.7450      2.00000
     27       0.8816      2.00000
     28       0.9584      2.00000
     29       0.9829      2.00000
     30       1.0476      2.00000
     31       1.1908      2.00000
     32       1.3429      2.00000
     33       1.3615      2.00000
     34       1.4666      2.00000
     35       1.5373      2.00000
     36       1.6405      2.00000
     37       1.7310      2.00000
     38       1.8427      2.00000
     39       1.9107      2.00000
     40       2.7095      2.00000
     41       3.6798      2.00000
     42       4.2086      2.00000
     43       4.5629      2.00000
     44       4.7267      2.00000
     45       5.1359      2.00000
     46       5.7255      2.00000
     47       5.7977      2.00000
     48       6.0348      2.00000
     49       6.1469      2.00000
     50       6.6213      1.98875
     51       6.9744      0.00000
     52       7.1046      0.00000
     53       7.5872      0.00000
     54       8.0156      0.00000
     55       8.4919      0.00000
     56       8.5798      0.00000
     57       9.1010      0.00000
     58       9.4206      0.00000
     59       9.6747      0.00000
     60      10.0539      0.00000
     61      10.5787      0.00000
     62      10.8827      0.00000

 k-point    20 :       0.3846    0.2308    0.0000
  band No.  band energies     occupation 
      1     -13.1352      2.00000
      2     -13.1313      2.00000
      3     -13.1140      2.00000
      4     -13.0965      2.00000
      5     -13.0775      2.00000
      6     -13.0535      2.00000
      7     -13.0318      2.00000
      8     -13.0103      2.00000
      9     -12.9955      2.00000
     10      -1.2597      2.00000
     11      -1.1560      2.00000
     12      -0.9973      2.00000
     13      -0.8170      2.00000
     14      -0.8123      2.00000
     15      -0.7869      2.00000
     16      -0.7405      2.00000
     17      -0.6945      2.00000
     18      -0.6860      2.00000
     19       0.1339      2.00000
     20       0.1556      2.00000
     21       0.2071      2.00000
     22       0.2611      2.00000
     23       0.2633      2.00000
     24       0.3195      2.00000
     25       0.4552      2.00000
     26       0.6308      2.00000
     27       0.8079      2.00000
     28       1.0927      2.00000
     29       1.1165      2.00000
     30       1.2766      2.00000
     31       1.3290      2.00000
     32       1.3923      2.00000
     33       1.4973      2.00000
     34       1.6291      2.00000
     35       1.7129      2.00000
     36       1.7166      2.00000
     37       2.4665      2.00000
     38       2.4731      2.00000
     39       2.8359      2.00000
     40       2.8434      2.00000
     41       3.3551      2.00000
     42       3.4388      2.00000
     43       4.1169      2.00000
     44       4.2226      2.00000
     45       5.0145      2.00000
     46       5.2953      2.00000
     47       5.6795      2.00000
     48       6.0097      2.00000
     49       6.0616      2.00000
     50       6.3404      2.00000
     51       6.7353      0.48948
     52       7.2287      0.00000
     53       7.2634      0.00000
     54       7.7663      0.00000
     55       8.3558      0.00000
     56       8.4827      0.00000
     57       8.5787      0.00000
     58       9.3410      0.00000
     59       9.6997      0.00000
     60       9.8888      0.00000
     61      10.4139      0.00000
     62      10.8779      0.00000

 k-point    21 :       0.3077    0.3077   -0.0000
  band No.  band energies     occupation 
      1     -13.1076      2.00000
      2     -13.1037      2.00000
      3     -13.0822      2.00000
      4     -13.0700      2.00000
      5     -13.0569      2.00000
      6     -13.0395      2.00000
      7     -13.0247      2.00000
      8     -13.0096      2.00000
      9     -12.9996      2.00000
     10      -0.9065      2.00000
     11      -0.9039      2.00000
     12      -0.8176      2.00000
     13      -0.8088      2.00000
     14      -0.7096      2.00000
     15      -0.6562      2.00000
     16      -0.5102      2.00000
     17      -0.4932      2.00000
     18      -0.3964      2.00000
     19      -0.2888      2.00000
     20      -0.2319      2.00000
     21      -0.0888      2.00000
     22      -0.0280      2.00000
     23       0.0553      2.00000
     24       0.1892      2.00000
     25       0.2080      2.00000
     26       0.3614      2.00000
     27       0.3666      2.00000
     28       1.1018      2.00000
     29       1.1218      2.00000
     30       1.3060      2.00000
     31       1.4273      2.00000
     32       1.4818      2.00000
     33       1.5346      2.00000
     34       1.5378      2.00000
     35       1.5668      2.00000
     36       1.6764      2.00000
     37       2.3456      2.00000
     38       2.7185      2.00000
     39       3.2707      2.00000
     40       3.9524      2.00000
     41       3.9572      2.00000
     42       4.0565      2.00000
     43       4.3210      2.00000
     44       4.3320      2.00000
     45       4.8231      2.00000
     46       4.8792      2.00000
     47       4.9719      2.00000
     48       5.5406      2.00000
     49       5.7482      2.00000
     50       6.0566      2.00000
     51       6.6491      1.91941
     52       6.6953      1.34067
     53       7.5072      0.00000
     54       7.6646      0.00000
     55       8.0890      0.00000
     56       8.2881      0.00000
     57       8.7497      0.00000
     58       9.0026      0.00000
     59       9.3808      0.00000
     60       9.7163      0.00000
     61      10.0574      0.00000
     62      10.5534      0.00000


--------------------------------------------------------------------------------------------------------


 soft charge-density along one line, spin component           1
         0         1         2         3         4         5         6         7         8         9
 total charge-density along one line
 
 pseudopotential strength for first ion, spin component:           1
 12.180   0.000 -14.820   0.000   0.000   0.000  -0.000   0.000  -0.000   0.000  -0.000   0.000   0.000   0.000   0.000   0.000
-14.820   0.000  18.051   0.000  -0.000   0.000   0.000   0.000   0.000   0.000   0.000   0.000  -0.000   0.000  -0.000   0.000
  0.000   0.000  -0.000   0.000  -8.314   0.000  -0.000   0.000   0.000   0.000   9.953   0.000   0.000   0.000  -0.000   0.000
 -0.000   0.000   0.000   0.000  -0.000   0.000  -8.318   0.000   0.000   0.000   0.000   0.000   9.958   0.000  -0.000   0.000
 -0.000   0.000   0.000   0.000   0.000   0.000   0.000   0.000  -8.314   0.000  -0.000   0.000  -0.000   0.000   9.953   0.000
 -0.000   0.000   0.000   0.000   9.953   0.000   0.000   0.000  -0.000   0.000 -11.755   0.000  -0.000   0.000   0.000   0.000
  0.000   0.000  -0.000   0.000   0.000   0.000   9.958   0.000  -0.000   0.000  -0.000   0.000 -11.762   0.000   0.000   0.000
  0.000   0.000  -0.000   0.000  -0.000   0.000  -0.000   0.000   9.953   0.000   0.000   0.000   0.000   0.000 -11.755   0.000
 total augmentation occupancy for first ion, spin component:           1
  2.600   0.362   0.000  -0.000  -0.000   0.000  -0.000   0.000
  0.362   0.068   0.000   0.000  -0.000   0.000  -0.000   0.000
  0.000   0.000   2.159  -0.000   0.000   0.259  -0.000   0.000
 -0.000   0.000  -0.000   2.156   0.000  -0.000   0.262   0.000
 -0.000  -0.000   0.000   0.000   2.159   0.000   0.000   0.259
  0.000   0.000   0.259  -0.000   0.000   0.034  -0.000   0.000
 -0.000  -0.000  -0.000   0.262   0.000  -0.000   0.034  -0.000
  0.000   0.000   0.000   0.000   0.259   0.000  -0.000   0.034


------------------------ aborting loop because EDIFF is reached ----------------------------------------


    CHARGE:  cpu time    0.35: real time    0.35
    FORLOC:  cpu time    0.03: real time    0.03
    FORNL :  cpu time    2.96: real time    2.96
    STRESS:  cpu time    4.04: real time    4.04
    FORCOR:  cpu time    0.13: real time    0.13
    FORHAR:  cpu time    0.05: real time    0.05
    MIXING:  cpu time    0.00: real time    0.00
    OFIELD:  cpu time    0.00: real time    0.00

  FORCE on cell =-STRESS in cart. coord.  units (eV):
  Direction    XX          YY          ZZ          XY          YZ          ZX
  --------------------------------------------------------------------------------------
  Alpha Z   124.61734   124.61734   124.61734
  Ewald   15852.89669 15852.89698-18321.31129    -0.00002    -0.00003    -0.00013
  Hartree 17463.14353 17463.14346-16607.38243    -0.00000    -0.00000     0.00004
  E(xc)    -389.28590  -389.28591  -389.77253    -0.00000     0.00000    -0.00000
  Local  -34455.82442-34455.82395 33785.89962    -0.00016     0.00003     0.00004
  n-local   -25.83020   -37.76774   -25.51846     2.67528    -1.55773     4.86458
  augment    53.79978    53.79955    53.11185     0.00016     0.00000     0.00000
  Kinetic  1404.52750  1357.41607  1371.57422     0.77093    -0.17602     0.39026
  Fock        0.00000     0.00000     0.00000     0.00000     0.00000     0.00000
  -------------------------------------------------------------------------------------
  Total      -1.47995    -1.47995    -8.78168     0.00000     0.00000     0.00000
  in kB      -7.30782    -7.30781   -43.36288     0.00000     0.00000     0.00000
  external pressure =      -19.33 kB  Pullay stress =        0.00 kB


 VOLUME and BASIS-vectors are now :
 -----------------------------------------------------------------------------
  energy-cutoff  :      520.00
  volume of cell :      324.47
      direct lattice vectors                 reciprocal lattice vectors
     2.591982046 -1.496481076  0.000000000     0.385805142 -0.000000000 -0.000000000
     0.000000000  2.992962152  0.000000000     0.192902571  0.334117155  0.000000000
     0.000000000 -0.000000000 41.825101379     0.000000000  0.000000000  0.023909087

  length of vectors
     2.992962836  2.992962152 41.825101379     0.385805142  0.385805230  0.023909087


 FORCES acting on ions
    electron-ion (+dipol)            ewald-force                    non-local-force                 convergence-correction
 -----------------------------------------------------------------------------------------------
   -.645E-08 -.514E-08 0.986E+03   -.849E-07 0.104E-06 -.986E+03   -.208E-19 0.201E-18 0.409E-01   0.194E-09 -.146E-09 -.278E-02
   0.106E-02 -.184E-02 0.658E+03   0.569E-04 -.985E-04 -.658E+03   -.225E-19 0.391E-19 0.387E-02   0.262E-08 -.470E-08 -.248E-01
   0.260E-08 -.495E-09 0.405E+00   0.324E-08 -.452E-08 -.388E+00   0.764E-22 0.276E-20 0.158E-02   -.800E-10 0.631E-11 -.196E-01
   0.106E-02 -.184E-02 -.329E+03   0.570E-04 -.987E-04 0.329E+03   -.445E-21 -.136E-19 0.444E-02   -.164E-08 0.286E-08 0.219E-03
   -.106E-09 0.634E-08 -.986E+03   0.410E-07 -.520E-07 0.986E+03   0.436E-20 -.204E-18 -.311E-01   -.629E-09 0.838E-09 0.872E-02
   0.106E-02 -.185E-02 -.131E+04   0.522E-04 -.863E-04 0.131E+04   0.423E-17 0.734E-17 -.102E+01   -.496E-08 0.855E-08 0.125E-01
   -.106E-02 0.185E-02 0.131E+04   -.521E-04 0.862E-04 -.131E+04   0.975E-18 -.734E-17 0.101E+01   -.965E-09 0.197E-08 0.986E-02
   -.106E-02 0.184E-02 0.329E+03   -.569E-04 0.986E-04 -.329E+03   0.163E-19 0.593E-19 -.128E-01   -.393E-08 0.666E-08 -.296E-01
   -.106E-02 0.184E-02 -.658E+03   -.570E-04 0.987E-04 0.658E+03   -.659E-20 0.278E-19 -.102E-01   -.165E-08 0.311E-08 0.134E-01
   -.995E-05 0.270E-05 0.472E+03   0.240E-04 -.255E-04 -.473E+03   0.286E-16 -.557E-16 0.519E+00   0.162E-09 -.294E-09 0.469E-02
   -.861E-08 0.224E-07 0.165E+03   -.123E-07 0.137E-07 -.164E+03   -.113E-20 -.715E-20 0.930E-03   -.414E-09 0.703E-09 -.102E-01
   0.219E-07 -.323E-07 -.164E+03   -.146E-07 0.163E-07 0.164E+03   -.420E-20 -.548E-19 0.139E-02   0.454E-10 -.116E-09 0.307E-02
   0.995E-05 -.271E-05 -.473E+03   -.240E-04 0.255E-04 0.473E+03   -.433E-17 -.553E-16 -.511E+00   -.525E-09 0.861E-09 0.198E-02
   0.433E-04 -.750E-04 0.274E+03   -.487E-04 0.844E-04 -.274E+03   -.845E-19 -.214E-18 -.801E-02   -.438E-10 0.416E-10 -.526E-02
   0.435E-04 -.753E-04 -.547E+02   -.489E-04 0.846E-04 0.547E+02   -.464E-20 -.122E-20 0.307E-02   -.288E-09 0.533E-09 -.313E-02
   0.435E-04 -.752E-04 -.384E+03   -.487E-04 0.843E-04 0.384E+03   -.201E-17 0.345E-17 0.560E-01   0.574E-09 -.101E-08 0.324E-02
   -.434E-04 0.751E-04 0.383E+03   0.487E-04 -.842E-04 -.383E+03   0.277E-18 0.234E-19 -.587E-01   -.672E-11 0.357E-10 0.178E-02
   -.434E-04 0.752E-04 0.550E+02   0.488E-04 -.846E-04 -.550E+02   0.255E-19 0.286E-19 -.386E-02   0.302E-09 -.502E-09 -.877E-02
   -.434E-04 0.752E-04 -.274E+03   0.488E-04 -.846E-04 0.274E+03   -.179E-19 -.181E-20 0.455E-02   0.113E-09 -.101E-09 0.462E-02
   0.295E-09 0.383E-09 0.327E+00   -.385E-08 0.383E-08 -.324E+00   0.820E-19 -.518E-19 -.600E-02   -.120E-11 -.822E-12 0.437E-03
   -.579E-06 -.379E-07 0.463E+03   0.233E-05 -.215E-05 -.463E+03   -.445E-18 0.417E-19 -.105E+00   -.355E-11 0.198E-11 0.659E-02
   0.154E-04 -.265E-04 0.307E+03   -.364E-05 0.626E-05 -.307E+03   -.131E-17 -.115E-20 0.288E-02   0.202E-11 -.855E-11 0.529E-02
   -.149E-04 0.257E-04 0.152E+03   0.370E-05 -.634E-05 -.152E+03   0.566E-17 -.352E-17 0.126E+00   -.561E-11 0.125E-10 0.302E-02
   0.577E-06 0.376E-07 -.463E+03   -.232E-05 0.214E-05 0.463E+03   -.238E-16 -.278E-16 0.107E+00   0.556E-11 -.639E-11 -.427E-03
   0.149E-04 -.257E-04 -.152E+03   -.369E-05 0.632E-05 0.152E+03   -.569E-17 -.168E-17 -.133E+00   0.271E-11 -.179E-11 -.156E-02
   -.154E-04 0.265E-04 -.307E+03   0.362E-05 -.623E-05 0.307E+03   -.218E-17 0.327E-20 -.820E-02   -.314E-11 0.591E-11 -.205E-02
 -----------------------------------------------------------------------------------------------
   -.418E-08 -.107E-07 0.494E-01   -.795E-13 -.375E-14 -.398E-12   -.726E-19 -.141E-15 -.205E-01   -.111E-07 0.193E-07 -.287E-01
 
 
 POSITION                                       TOTAL-FORCE (eV/Angst)
 -----------------------------------------------------------------------------------
      0.00000     -0.00000     14.52569        -0.000000      0.000000      0.004469
      0.86399      1.49648     17.01557         0.000000     -0.000000      0.000369
      0.00000     -0.00000     21.99240        -0.000000      0.000000     -0.000769
      0.86399      1.49648     24.47917         0.000000     -0.000000      0.002385
      0.00000     -0.00000     29.45443        -0.000000      0.000000      0.004325
      0.86399      1.49648     31.94331        -0.000000      0.000000     -0.010908
      1.72799     -0.00000     12.03564         0.000000     -0.000000      0.012488
      1.72799     -0.00000     19.50517         0.000000     -0.000000     -0.008771
      1.72799     -0.00000     26.96702         0.000000     -0.000000     -0.002715
      0.00000     -0.00000     10.76142        -0.000000      0.000000      0.007309
      0.00000     -0.00000     18.26024        -0.000000      0.000000      0.004077
      0.00000     -0.00000     25.72294        -0.000000      0.000000     -0.000392
      0.00000     -0.00000     33.21749        -0.000000      0.000000      0.001552
      1.72799     -0.00000     15.77133        -0.000000      0.000000      0.002187
      1.72799     -0.00000     23.23555        -0.000000      0.000000      0.004537
      1.72799     -0.00000     30.69763        -0.000000      0.000000      0.002558
      0.86399      1.49648     13.28220        -0.000000      0.000000     -0.001554
      0.86399      1.49648     20.74906        -0.000000      0.000000     -0.010336
      0.86399      1.49648     28.21035        -0.000000      0.000000     -0.006750
      0.00000     -0.00000      1.08065        -0.000000      0.000000     -0.002478
      0.00000     -0.00000      7.94299        -0.000000      0.000000      0.009510
      1.72799     -0.00000      5.65358        -0.000000      0.000000      0.002408
      0.86399      1.49648      3.35726        -0.000000      0.000000      0.001949
      0.00000     -0.00000     36.03828        -0.000000      0.000000     -0.007744
      1.72799     -0.00000     40.62837        -0.000000      0.000000     -0.003626
      0.86399      1.49648     38.33039        -0.000000      0.000000     -0.004077
 -----------------------------------------------------------------------------------
    total drift:                               -0.000000      0.000000      0.000203


--------------------------------------------------------------------------------------------------------



  FREE ENERGIE OF THE ION-ELECTRON SYSTEM (eV)
  ---------------------------------------------------
  free  energy   TOTEN  =      -133.29929784 eV

  energy  without entropy=     -133.29282699  energy(sigma->0) =     -133.29606242
 
 d Force = 0.7707976E-04[ 0.152E-06, 0.154E-03]  d Energy = 0.6873116E-04 0.835E-05
 d Force =-0.3882298E+01[-0.388E+01,-0.388E+01]  d Ewald  =-0.3882298E+01 0.105E-06


--------------------------------------------------------------------------------------------------------


    POTLOK:  cpu time    0.20: real time    0.20


--------------------------------------------------------------------------------------------------------


 Conjugate gradient step on ions:
 trial-energy change:   -0.000069  1 .order   -0.000077   -0.000154   -0.000000
  (g-gl).g = 0.109E-03      g.g   = 0.118E-03  gl.gl    = 0.599E-03
 g(Force)  = 0.118E-03   g(Stress)= 0.000E+00 ortho     = 0.532E-05
 gamma     =   0.18144
 trial     =   1.29436
 opt step  =   1.29564  (harmonic =   1.29564) maximal distance =0.00172992
 next E    =  -133.299306   (d E  =  -0.00008)


--------------------------------------------------------------------------------------------------------


  
 reached required accuracy - stopping structural energy minimisation
     LOOP+:  cpu time   30.80: real time   30.83
    4ORBIT:  cpu time    0.00: real time    0.00

 total amount of memory used by VASP on root node   146652. kBytes
========================================================================

   base      :      30000. kBytes
   nonl-proj :      15455. kBytes
   fftplans  :      55171. kBytes
   grid      :      22118. kBytes
   one-center:         56. kBytes
   wavefun   :      23852. kBytes
 
  
  
 General timing and accounting informations for this job:
 ========================================================
  
                  Total CPU time used (sec):      884.170
                            User time (sec):      872.976
                          System time (sec):       11.194
                         Elapsed time (sec):      885.395
  
                   Maximum memory used (kb):      250340.
                   Average memory used (kb):           0.
  
                          Minor page faults:       277601
                          Major page faults:            0
                 Voluntary context switches:           98
