 vasp.5.4.4.18Apr17-6-g9f103f2a35 (build Nov 15 2019 10:10:58) complex          
  
 executed on             LinuxIFC date 2025.01.15  07:37:13
 running on   16 total cores
 distrk:  each k-point on   16 cores,    1 groups
 distr:  one band on NCORES_PER_BAND=   4 cores,    4 groups


--------------------------------------------------------------------------------------------------------


 INCAR:
 POTCAR:   PAW_PBE O 08Apr2002                    
 POTCAR:   PAW_PBE Mg 05Jan2001                   
 POTCAR:   PAW_PBE Al 04Jan2001                   
 POTCAR:   PAW_PBE O 08Apr2002                    
   VRHFIN =O: s2p4                                                              
   LEXCH  = PE                                                                  
   EATOM  =   432.3788 eV,   31.7789 Ry                                         
                                                                                
   TITEL  = PAW_PBE O 08Apr2002                                                 
   LULTRA =        F    use ultrasoft PP ?                                      
   IUNSCR =        0    unscreen: 0-lin 1-nonlin 2-no                           
   RPACOR =     .000    partial core radius                                     
   POMASS =   16.000; ZVAL   =    6.000    mass and valenz                      
   RCORE  =    1.520    outmost cutoff radius                                   
   RWIGS  =    1.550; RWIGS  =     .820    wigner-seitz radius (au A)           
   ENMAX  =  400.000; ENMIN  =  300.000 eV                                      
   ICORE  =        2    local potential                                         
   LCOR   =        T    correct aug charges                                     
   LPAW   =        T    paw PP                                                  
   EAUG   =  605.392                                                            
   DEXC   =     .000                                                            
   RMAX   =    2.264    core radius for proj-oper                               
   RAUG   =    1.300    factor for augmentation sphere                          
   RDEP   =    1.550    radius for radial grids                                 
   QCUT   =   -5.520; QGAM   =   11.041    optimization parameters              
                                                                                
   Description                                                                  
     l     E      TYP  RCUT    TYP  RCUT                                        
     0   .000     23  1.200                                                     
     0  -.700     23  1.200                                                     
     1   .000     23  1.520                                                     
     1   .600     23  1.520                                                     
     2   .000      7  1.500                                                     
  local pseudopotential read in
  atomic valenz-charges read in
  non local Contribution for L=           0  read in
    real space projection operators read in
  non local Contribution for L=           0  read in
    real space projection operators read in
  non local Contribution for L=           1  read in
    real space projection operators read in
  non local Contribution for L=           1  read in
    real space projection operators read in
    PAW grid and wavefunctions read in
 
   number of l-projection  operators is LMAX  =           4
   number of lm-projection operators is LMMAX =           8
 
 POTCAR:   PAW_PBE Mg 05Jan2001                   
   VRHFIN =Mg: s2p0                                                             
   LEXCH  = PE                                                                  
   EATOM  =    23.0029 eV,    1.6907 Ry                                         
                                                                                
   TITEL  = PAW_PBE Mg 05Jan2001                                                
   LULTRA =        F    use ultrasoft PP ?                                      
   IUNSCR =        1    unscreen: 0-lin 1-nonlin 2-no                           
   RPACOR =    2.000    partial core radius                                     
   POMASS =   24.305; ZVAL   =    2.000    mass and valenz                      
   RCORE  =    2.000    outmost cutoff radius                                   
   RWIGS  =    2.880; RWIGS  =    1.524    wigner-seitz radius (au A)           
   ENMAX  =  210.012; ENMIN  =  157.509 eV                                      
   ICORE  =        2    local potential                                         
   LCOR   =        T    correct aug charges                                     
   LPAW   =        T    paw PP                                                  
   EAUG   =  274.554                                                            
   DEXC   =    -.136                                                            
   RMAX   =    3.182    core radius for proj-oper                               
   RAUG   =    1.300    factor for augmentation sphere                          
   RDEP   =    2.025    radius for radial grids                                 
   QCUT   =   -3.929; QGAM   =    7.858    optimization parameters              
                                                                                
   Description                                                                  
     l     E      TYP  RCUT    TYP  RCUT                                        
     0   .000     23  2.000                                                     
     0  2.000     23  2.000                                                     
     1   .000     23  2.000                                                     
     1  2.000     23  2.000                                                     
     2   .000     23  2.000                                                     
  local pseudopotential read in
  partial core-charges read in
  atomic valenz-charges read in
  non local Contribution for L=           0  read in
    real space projection operators read in
  non local Contribution for L=           0  read in
    real space projection operators read in
  non local Contribution for L=           1  read in
    real space projection operators read in
  non local Contribution for L=           1  read in
    real space projection operators read in
    PAW grid and wavefunctions read in
 
   number of l-projection  operators is LMAX  =           4
   number of lm-projection operators is LMMAX =           8
 
 POTCAR:   PAW_PBE Al 04Jan2001                   
   VRHFIN =Al: s2p1                                                             
   LEXCH  = PE                                                                  
   EATOM  =    53.5387 eV,    3.9350 Ry                                         
                                                                                
   TITEL  = PAW_PBE Al 04Jan2001                                                
   LULTRA =        F    use ultrasoft PP ?                                      
   IUNSCR =        1    unscreen: 0-lin 1-nonlin 2-no                           
   RPACOR =    1.500    partial core radius                                     
   POMASS =   26.982; ZVAL   =    3.000    mass and valenz                      
   RCORE  =    1.900    outmost cutoff radius                                   
   RWIGS  =    2.650; RWIGS  =    1.402    wigner-seitz radius (au A)           
   ENMAX  =  240.300; ENMIN  =  180.225 eV                                      
   ICORE  =        2    local potential                                         
   LCOR   =        T    correct aug charges                                     
   LPAW   =        T    paw PP                                                  
   EAUG   =  291.052                                                            
   DEXC   =    -.041                                                            
   RMAX   =    2.974    core radius for proj-oper                               
   RAUG   =    1.300    factor for augmentation sphere                          
   RDEP   =    1.966    radius for radial grids                                 
   QCUT   =   -4.203; QGAM   =    8.405    optimization parameters              
                                                                                
   Description                                                                  
     l     E      TYP  RCUT    TYP  RCUT                                        
     0   .000     23  1.900                                                     
     0   .000     23  1.900                                                     
     1   .000     23  1.900                                                     
     1  1.000     23  1.900                                                     
     2   .000      7  1.900                                                     
  local pseudopotential read in
  partial core-charges read in
  atomic valenz-charges read in
  non local Contribution for L=           0  read in
    real space projection operators read in
  non local Contribution for L=           0  read in
    real space projection operators read in
  non local Contribution for L=           1  read in
    real space projection operators read in
  non local Contribution for L=           1  read in
    real space projection operators read in
    PAW grid and wavefunctions read in
 
   number of l-projection  operators is LMAX  =           4
   number of lm-projection operators is LMMAX =           8
 

 ----------------------------------------------------------------------------- 
|                                                                             |
|  ADVICE TO THIS USER RUNNING 'VASP/VAMP'   (HEAR YOUR MASTER'S VOICE ...):  |
|                                                                             |
|      You have a (more or less) 'large supercell' and for larger cells       |
|      it might be more efficient to use real space projection operators      |
|      So try LREAL= Auto  in the INCAR   file.                               |
|      Mind: If you want to do a very accurate calculations keep the          |
|      reciprocal projection scheme          (i.e. LREAL=.FALSE.)             |
|                                                                             |
 ----------------------------------------------------------------------------- 

 PAW_PBE O 08Apr2002                    :
 energy of atom  1       EATOM= -432.3788
 kinetic energy error for atom=    0.0208 (will be added to EATOM!!)
 PAW_PBE Mg 05Jan2001                   :
 energy of atom  2       EATOM=  -23.0029
 kinetic energy error for atom=    0.0000 (will be added to EATOM!!)
 PAW_PBE Al 04Jan2001                   :
 energy of atom  3       EATOM=  -53.5387
 kinetic energy error for atom=    0.0002 (will be added to EATOM!!)
 
 
 POSCAR: Layer (20)                              
  positions in direct lattice
  velocities in cartesian coordinates
 exchange correlation table for  LEXCH =        8
   RHO(1)=    0.500       N(1)  =     2000
   RHO(2)=  100.500       N(2)  =     4000

 VTST: version 3.2, (02/03/18)

 CHAIN: initializing optimizer
 
 OPT: Using VASP Conjugate-Gradient optimizer
 CHAIN: Read ICHAIN            0
 
 POSCAR: Layer (20)                              
  positions in direct lattice
  velocities in cartesian coordinates
 


--------------------------------------------------------------------------------------------------------


 ion  position               nearest neighbor table
   1  0.000  0.000  0.440-  14 2.11  14 2.11  14 2.11  18 2.14  18 2.14  18 2.14
   2  0.333  0.667  0.470-  14 2.11  14 2.11  14 2.11  11 2.12  11 2.12  11 2.12
   3  0.000  0.000  0.530-  19 2.11  19 2.11  19 2.11  15 2.12  15 2.12  15 2.12
   4  0.333  0.667  0.560-  15 2.11  15 2.11  15 2.11  12 2.12  12 2.12  12 2.12
   5  0.000  0.000  0.619-  20 2.11  20 2.11  20 2.11  16 2.12  16 2.12  16 2.12
   6  0.333  0.667  0.649-  16 2.11  16 2.11  16 2.11  13 2.12  13 2.12  13 2.12
   7  0.000  0.000  0.709-  21 2.11  21 2.11  21 2.11  17 2.15  17 2.15  17 2.15
   8  0.667  0.333  0.500-  11 2.11  11 2.11  11 2.11  19 2.12  19 2.12  19 2.12
   9  0.667  0.333  0.590-  12 2.11  12 2.11  12 2.11  20 2.12  20 2.12  20 2.12
  10  0.667  0.333  0.679-  13 2.11  13 2.11  13 2.11  21 2.12  21 2.12  21 2.12
  11  0.000  0.000  0.485-   8 2.11   8 2.11   8 2.11   2 2.12   2 2.12   2 2.12  14 2.99  14 2.99
                            14 2.99  19 3.00  19 3.00  19 3.00
  12  0.000  0.000  0.575-   9 2.11   9 2.11   9 2.11   4 2.12   4 2.12   4 2.12  20 3.00  20 3.00
                            20 3.00  15 3.00  15 3.00  15 3.00
  13  0.000  0.000  0.664-  10 2.11  10 2.11  10 2.11   6 2.12   6 2.12   6 2.12  21 3.00  21 3.00
                            21 3.00  16 3.00  16 3.00  16 3.00
  14  0.667  0.333  0.455-   2 2.11   2 2.11   2 2.11   1 2.11   1 2.11   1 2.11  11 2.99  11 2.99
                            11 2.99  18 3.03  18 3.03  18 3.03
  15  0.667  0.333  0.545-   4 2.11   4 2.11   4 2.11   3 2.12   3 2.12   3 2.12  19 3.00  19 3.00
                            19 3.00  12 3.00  12 3.00  12 3.00
  16  0.667  0.333  0.634-   6 2.11   6 2.11   6 2.11   5 2.12   5 2.12   5 2.12  13 3.00  13 3.00
                            13 3.00  20 3.00  20 3.00  20 3.00
  17  0.667  0.333  0.724-   7 2.15   7 2.15   7 2.15  21 3.04  21 3.04  21 3.04
  18  0.333  0.667  0.425-   1 2.14   1 2.14   1 2.14  24 2.96  24 2.96  24 2.96  14 3.03  14 3.03
                            14 3.03
  19  0.333  0.667  0.515-   3 2.11   3 2.11   3 2.11   8 2.12   8 2.12   8 2.12  11 3.00  11 3.00
                            11 3.00  15 3.00  15 3.00  15 3.00
  20  0.333  0.667  0.605-   5 2.11   5 2.11   5 2.11   9 2.12   9 2.12   9 2.12  16 3.00  16 3.00
                            16 3.00  12 3.00  12 3.00  12 3.00
  21  0.333  0.667  0.694-   7 2.11   7 2.11   7 2.11  10 2.12  10 2.12  10 2.12  13 3.00  13 3.00
                            13 3.00  17 3.04  17 3.04  17 3.04
  22  0.000  0.000  0.233-  27 2.84  27 2.84  27 2.84
  23  0.000  0.000  0.315-  25 2.81  25 2.81  25 2.81  28 2.82  28 2.82  28 2.82
  24  0.000  0.000  0.396-  26 2.81  26 2.81  26 2.81  18 2.96  18 2.96  18 2.96
  25  0.667  0.333  0.288-  23 2.81  23 2.81  23 2.81  27 2.81  27 2.81  27 2.81
  26  0.667  0.333  0.369-  24 2.81  24 2.81  24 2.81  28 2.82  28 2.82  28 2.82
  27  0.333  0.667  0.261-  25 2.81  25 2.81  25 2.81  22 2.84  22 2.84  22 2.84
  28  0.333  0.667  0.342-  26 2.82  26 2.82  26 2.82  23 2.82  23 2.82  23 2.82
 
  LATTYP: Found a hexagonal cell.
 ALAT       =     2.9850604079
 C/A-ratio  =    27.5396116811
  
  Lattice vectors:
  
 A1 = (   2.5851399813,  -1.4925270234,   0.0000000000)
 A2 = (   0.0000000000,   2.9850540469,   0.0000000000)
 A3 = (  -0.0000000000,   0.0000000000,  82.2074044782)


Analysis of symmetry for initial positions (statically):
=====================================================================
 Subroutine PRICEL returns:
 Original cell was already a primitive cell.
 

 Routine SETGRP: Setting up the symmetry group for a 
 hexagonal supercell.


 Subroutine GETGRP returns: Found  6 space group operations
 (whereof  6 operations were pure point group operations)
 out of a pool of 24 trial point group operations.


The static configuration has the point symmetry C_3v.


Analysis of symmetry for dynamics (positions and initial velocities):
=====================================================================
 Subroutine PRICEL returns:
 Original cell was already a primitive cell.
 

 Routine SETGRP: Setting up the symmetry group for a 
 hexagonal supercell.


 Subroutine GETGRP returns: Found  6 space group operations
 (whereof  6 operations were pure point group operations)
 out of a pool of 24 trial point group operations.


The dynamic configuration has the point symmetry C_3v.


Analysis of constrained symmetry for selective dynamics:
=====================================================================
 Subroutine PRICEL returns:
 Original cell was already a primitive cell.
 

 Routine SETGRP: Setting up the symmetry group for a 
 hexagonal supercell.


 Subroutine GETGRP returns: Found  6 space group operations
 (whereof  6 operations were pure point group operations)
 out of a pool of 24 trial point group operations.


The constrained configuration has the point symmetry C_3v.


 Subroutine INISYM returns: Found  6 space group operations
 (whereof  6 operations are pure point group operations),
 and found     1 'primitive' translations

 
 
 KPOINTS: K-Spacing Value to Generate K-Mesh: 0.02

Automatic generation of k-mesh.
Space group operators:
 irot       det(A)        alpha          n_x          n_y          n_z        tau_x        tau_y        tau_z
    1     1.000000     0.000000     1.000000     0.000000     0.000000     0.000000     0.000000     0.000000
    2     1.000000   120.000000     0.000000    -0.000000    -1.000000     0.000000     0.000000     0.000000
    3     1.000000   120.000000    -0.000000    -0.000000     1.000000     0.000000     0.000000     0.000000
    4    -1.000000   180.000000     0.866025    -0.500001     0.000000     0.000000     0.000000     0.000000
    5    -1.000000   180.000000     0.000000     1.000000     0.000000     0.000000     0.000000     0.000000
    6    -1.000000   180.000000     0.866025     0.500001     0.000000     0.000000     0.000000     0.000000
 
 Subroutine IBZKPT returns following result:
 ===========================================
 
 Found     21 irreducible k-points:
 
 Following reciprocal coordinates:
            Coordinates               Weight
  0.000000  0.000000  0.000000      1.000000
  0.076923  0.000000  0.000000      6.000000
  0.153846  0.000000  0.000000      6.000000
  0.230769  0.000000  0.000000      6.000000
  0.307692  0.000000  0.000000      6.000000
  0.384615  0.000000  0.000000      6.000000
  0.461538  0.000000  0.000000      6.000000
  0.076923  0.076923  0.000000      6.000000
  0.153846  0.076923  0.000000     12.000000
  0.230769  0.076923  0.000000     12.000000
  0.307692  0.076923  0.000000     12.000000
  0.384615  0.076923  0.000000     12.000000
  0.461538  0.076923  0.000000      6.000000
  0.153846  0.153846  0.000000      6.000000
  0.230769  0.153846  0.000000     12.000000
  0.307692  0.153846  0.000000     12.000000
  0.384615  0.153846  0.000000     12.000000
  0.230769  0.230769  0.000000      6.000000
  0.307692  0.230769  0.000000     12.000000
  0.384615  0.230769  0.000000      6.000000
  0.307692  0.307692  0.000000      6.000000
 
 Following cartesian coordinates:
            Coordinates               Weight
  0.000000  0.000000  0.000000      1.000000
  0.029756  0.000000  0.000000      6.000000
  0.059512  0.000000  0.000000      6.000000
  0.089268  0.000000  0.000000      6.000000
  0.119023  0.000000  0.000000      6.000000
  0.148779  0.000000  0.000000      6.000000
  0.178535  0.000000  0.000000      6.000000
  0.044634  0.025769  0.000000      6.000000
  0.074390  0.025769  0.000000     12.000000
  0.104146  0.025769  0.000000     12.000000
  0.133901  0.025769  0.000000     12.000000
  0.163657  0.025769  0.000000     12.000000
  0.193413  0.025769  0.000000      6.000000
  0.089268  0.051539  0.000000      6.000000
  0.119023  0.051539  0.000000     12.000000
  0.148779  0.051539  0.000000     12.000000
  0.178535  0.051539  0.000000     12.000000
  0.133901  0.077308  0.000000      6.000000
  0.163657  0.077308  0.000000     12.000000
  0.193413  0.077308  0.000000      6.000000
  0.178535  0.103078  0.000000      6.000000
 


--------------------------------------------------------------------------------------------------------




 Dimension of arrays:
   k-points           NKPTS =     21   k-points in BZ     NKDIM =     21   number of bands    NBANDS=     68
   number of dos      NEDOS =    301   number of ions     NIONS =     28
   non local maximal  LDIM  =      4   non local SUM 2l+1 LMDIM =      8
   total plane-waves  NPLWV = 362880
   max r-space proj   IRMAX =      1   max aug-charges    IRDMAX= 194573
   dimension x,y,z NGX =    24 NGY =   24 NGZ =  630
   dimension x,y,z NGXF=    48 NGYF=   48 NGZF= 1260
   support grid    NGXF=    96 NGYF=   96 NGZF= 2520
   ions per type =              10  11   7
   NGX,Y,Z   is equivalent  to a cutoff of  13.37, 13.37, 12.74 a.u.
   NGXF,Y,Z  is equivalent  to a cutoff of  26.73, 26.73, 25.48 a.u.

 SYSTEM =  unknown system                          
 POSCAR =  Layer (20)                              

 Startparameter for this run:
   NWRITE =      2    write-flag & timer
   PREC   = accura    normal or accurate (medium, high low for compatibility)
   ISTART =      0    job   : 0-new  1-cont  2-samecut
   ICHARG =     11    charge: 1-file 2-atom 10-const
   ISPIN  =      1    spin polarized calculation?
   LNONCOLLINEAR =      F non collinear calculations
   LSORBIT =      F    spin-orbit coupling
   INIWAV =      1    electr: 0-lowe 1-rand  2-diag
   LASPH  =      T    aspherical Exc in radial PAW
   METAGGA=      F    non-selfconsistent MetaGGA calc.

 Electronic Relaxation 1
   ENCUT  =  520.0 eV  38.22 Ry    6.18 a.u.   5.55  5.55152.85*2*pi/ulx,y,z
   ENINI  =  520.0     initial cutoff
   ENAUG  =  605.4 eV  augmentation charge cutoff
   NELM   =    120;   NELMIN=  6; NELMDL=  0     # of ELM steps 
   EDIFF  = 0.1E-07   stopping-criterion for ELM
   LREAL  =      F    real-space projection
   NLSPLINE    = F    spline interpolate recip. space projectors
   LCOMPAT=      F    compatible to vasp.4.4
   GGA_COMPAT  = T    GGA compatible to vasp.4.4-vasp.4.6
   LMAXPAW     = -100 max onsite density
   LMAXMIX     =    2 max onsite mixed and CHGCAR
   VOSKOWN=      0    Vosko Wilk Nusair interpolation
   ROPT   =    0.00000   0.00000   0.00000
 Ionic relaxation
   EDIFFG = -.2E-01   stopping-criterion for IOM
   NSW    =      0    number of steps for IOM
   NBLOCK =      1;   KBLOCK =      1    inner block; outer block 
   IBRION =     -1    ionic relax: 0-MD 1-quasi-New 2-CG
   NFREE  =      1    steps in history (QN), initial steepest desc. (CG)
   ISIF   =      2    stress and relaxation
   IWAVPR =     10    prediction:  0-non 1-charg 2-wave 3-comb
   ISYM   =      2    0-nonsym 1-usesym 2-fastsym
   LCORR  =      T    Harris-Foulkes like correction to forces

   POTIM  = 0.5000    time-step for ionic-motion
   TEIN   =    0.0    initial temperature
   TEBEG  =    0.0;   TEEND  =   0.0 temperature during run
   SMASS  =  -3.00    Nose mass-parameter (am)
   estimated Nose-frequenzy (Omega)   =  0.10E-29 period in steps =****** mass=  -0.204E-27a.u.
   SCALEE = 1.0000    scale energy and forces
   NPACO  =    256;   APACO  = 16.0  distance and # of slots for P.C.
   PSTRESS=    0.0 pullay stress

  Mass of Ions in am
   POMASS =  16.00 24.30 26.98
  Ionic Valenz
   ZVAL   =   6.00  2.00  3.00
  Atomic Wigner-Seitz radii
   RWIGS  =  -1.00 -1.00 -1.00
  virtual crystal weights 
   VCA    =   1.00  1.00  1.00
   NELECT =     103.0000    total number of electrons
   NUPDOWN=      -1.0000    fix difference up-down

 DOS related values:
   EMIN   =  10.00;   EMAX   =-10.00  energy-range for DOS
   EFERMI =   0.00
   ISMEAR =     0;   SIGMA  =   0.05  broadening in eV -4-tet -1-fermi 0-gaus

 Electronic relaxation 2 (details)
   IALGO  =     38    algorithm
   LDIAG  =      T    sub-space diagonalisation (order eigenvalues)
   LSUBROT=      F    optimize rotation matrix (better conditioning)
   TURBO    =      0    0=normal 1=particle mesh
   IRESTART =      0    0=no restart 2=restart with 2 vectors
   NREBOOT  =      0    no. of reboots
   NMIN     =      0    reboot dimension
   EREF     =   0.00    reference energy to select bands
   IMIX   =      4    mixing-type and parameters
     AMIX     =   0.40;   BMIX     =  1.00
     AMIX_MAG =   1.60;   BMIX_MAG =  1.00
     AMIN     =   0.01
     WC   =   100.;   INIMIX=   1;  MIXPRE=   1;  MAXMIX= -45

 Intra band minimization:
   WEIMIN = 0.0000     energy-eigenvalue tresh-hold
   EBREAK =  0.37E-10  absolut break condition
   DEPER  =   0.30     relativ break condition  

   TIME   =   0.40     timestep for ELM

  volume/ion in A,a.u.               =      22.66       152.89
  Fermi-wavevector in a.u.,A,eV,Ry     =   0.893110  1.687733 10.852620  0.797645
  Thomas-Fermi vector in A             =   2.015145
 
 Write flags
   LWAVE        =      F    write WAVECAR
   LDOWNSAMPLE  =      F    k-point downsampling of WAVECAR
   LCHARG       =      T    write CHGCAR
   LVTOT        =      F    write LOCPOT, total local potential
   LVHAR        =      F    write LOCPOT, Hartree potential only
   LELF         =      F    write electronic localiz. function (ELF)
   LORBIT       =      0    0 simple, 1 ext, 2 COOP (PROOUT), +10 PAW based schemes


 Dipole corrections
   LMONO  =      F    monopole corrections only (constant potential shift)
   LDIPOL =      F    correct potential (dipole corrections)
   IDIPOL =      0    1-x, 2-y, 3-z, 4-all directions 
   EPSILON=  1.0000000 bulk dielectric constant

 Exchange correlation treatment:
   GGA     =    --    GGA type
   LEXCH   =     8    internal setting for exchange type
   VOSKOWN=      0    Vosko Wilk Nusair interpolation
   LHFCALC =     F    Hartree Fock is set to
   LHFONE  =     F    Hartree Fock one center treatment
   AEXX    =    0.0000 exact exchange contribution

 Linear response parameters
   LEPSILON=     F    determine dielectric tensor
   LRPA    =     F    only Hartree local field effects (RPA)
   LNABLA  =     F    use nabla operator in PAW spheres
   LVEL    =     F    velocity operator in full k-point grid
   LINTERFAST=   F  fast interpolation
   KINTER  =     0    interpolate to denser k-point grid
   CSHIFT  =0.1000    complex shift for real part using Kramers Kronig
   OMEGAMAX=  -1.0    maximum frequency
   DEG_THRESHOLD= 0.2000000E-02 threshold for treating states as degnerate
   RTIME   =   -0.100 relaxation time in fs
  (WPLASMAI=    0.000 imaginary part of plasma frequency in eV, 0.658/RTIME)
   DFIELD  = 0.0000000 0.0000000 0.0000000 field for delta impulse in time
 
 Orbital magnetization related:
   ORBITALMAG=     F  switch on orbital magnetization
   LCHIMAG   =     F  perturbation theory with respect to B field
   DQ        =  0.001000  dq finite difference perturbation B field
   LLRAUG    =     F  two centre corrections for induced B field



--------------------------------------------------------------------------------------------------------


 Static calculation
 charge density and potential remain constant during run
 non-spin polarized calculation
 Variant of blocked Davidson
 Davidson routine will perform the subspace rotation
 perform sub-space diagonalisation
    after iterative eigenvector-optimisation
 no mixing
 using additional bands           16
 reciprocal scheme for non local part
 use partial core corrections
 calculate Harris-corrections to forces 
   (improved forces if not selfconsistent)
 use gradient corrections 
 WARNING: stress and forces are not correct
  (second derivative of E(xc) not defined)
 use of overlap-Matrix (Vanderbilt PP)
 Gauss-broadening in eV      SIGMA  =   0.05


--------------------------------------------------------------------------------------------------------


  energy-cutoff  :      520.00
  volume of cell :      634.38
      direct lattice vectors                 reciprocal lattice vectors
     2.585139981 -1.492527023  0.000000000     0.386826248  0.000000000  0.000000000
     0.000000000  2.985054047  0.000000000     0.193413124  0.335002310  0.000000000
    -0.000000000  0.000000000 82.207404478    -0.000000000  0.000000000  0.012164354

  length of vectors
     2.985060408  2.985054047 82.207404478     0.386826248  0.386827072  0.012164354


 
 k-points in units of 2pi/SCALE and weight: K-Spacing Value to Generate K-Mesh: 0.02
   0.00000000  0.00000000  0.00000000       0.006
   0.02975587  0.00000000  0.00000000       0.036
   0.05951173  0.00000000  0.00000000       0.036
   0.08926760  0.00000000  0.00000000       0.036
   0.11902346  0.00000000  0.00000000       0.036
   0.14877933  0.00000000  0.00000000       0.036
   0.17853519  0.00000000  0.00000000       0.036
   0.04463380  0.02576941  0.00000000       0.036
   0.07438966  0.02576941  0.00000000       0.071
   0.10414553  0.02576941  0.00000000       0.071
   0.13390139  0.02576941  0.00000000       0.071
   0.16365726  0.02576941  0.00000000       0.071
   0.19341312  0.02576941  0.00000000       0.036
   0.08926760  0.05153882  0.00000000       0.036
   0.11902346  0.05153882  0.00000000       0.071
   0.14877933  0.05153882  0.00000000       0.071
   0.17853519  0.05153882  0.00000000       0.071
   0.13390139  0.07730823  0.00000000       0.036
   0.16365726  0.07730823  0.00000000       0.071
   0.19341312  0.07730823  0.00000000       0.036
   0.17853519  0.10307763  0.00000000       0.036
 
 k-points in reciprocal lattice and weights: K-Spacing Value to Generate K-Mesh: 0.02
   0.00000000  0.00000000  0.00000000       0.006
   0.07692308  0.00000000  0.00000000       0.036
   0.15384615  0.00000000  0.00000000       0.036
   0.23076923  0.00000000  0.00000000       0.036
   0.30769231  0.00000000  0.00000000       0.036
   0.38461538  0.00000000  0.00000000       0.036
   0.46153846  0.00000000  0.00000000       0.036
   0.07692308  0.07692308  0.00000000       0.036
   0.15384615  0.07692308  0.00000000       0.071
   0.23076923  0.07692308  0.00000000       0.071
   0.30769231  0.07692308  0.00000000       0.071
   0.38461538  0.07692308  0.00000000       0.071
   0.46153846  0.07692308  0.00000000       0.036
   0.15384615  0.15384615  0.00000000       0.036
   0.23076923  0.15384615  0.00000000       0.071
   0.30769231  0.15384615  0.00000000       0.071
   0.38461538  0.15384615  0.00000000       0.071
   0.23076923  0.23076923  0.00000000       0.036
   0.30769231  0.23076923  0.00000000       0.071
   0.38461538  0.23076923  0.00000000       0.036
   0.30769231  0.30769231  0.00000000       0.036
 
 position of ions in fractional coordinates (direct lattice) 
   0.00000000  0.00000000  0.44043698
   0.33333300  0.66666700  0.47017205
   0.00000000  0.00000000  0.52979878
   0.33333300  0.66666700  0.55965976
   0.00000000  0.00000000  0.61938872
   0.33333300  0.66666700  0.64923270
   0.00000000  0.00000000  0.70879404
   0.66666700  0.33333300  0.49996257
   0.66666700  0.33333300  0.58952162
   0.66666700  0.33333300  0.67903401
   0.00000000  0.00000000  0.48512824
   0.00000000  0.00000000  0.57465508
   0.00000000  0.00000000  0.66419230
   0.66666700  0.33333300  0.45534234
   0.66666700  0.33333300  0.54479187
   0.66666700  0.33333300  0.63437891
   0.66666700  0.33333300  0.72438950
   0.33333300  0.66666700  0.42507608
   0.33333300  0.66666700  0.51494315
   0.33333300  0.66666700  0.60451728
   0.33333300  0.66666700  0.69399776
   0.00000000  0.00000000  0.23315545
   0.00000000  0.00000000  0.31453382
   0.00000000  0.00000000  0.39586629
   0.66666700  0.33333300  0.28758776
   0.66666700  0.33333300  0.36892800
   0.33333300  0.66666700  0.26057494
   0.33333300  0.66666700  0.34175000
 
 position of ions in cartesian coordinates  (Angst):
  -0.00000000  0.00000000 36.20718130
   0.86171247  1.49252852 38.65162382
  -0.00000000  0.00000000 43.55338246
   0.86171247  1.49252852 46.00817633
  -0.00000000  0.00000000 50.91833891
   0.86171247  1.49252852 53.37173488
  -0.00000000  0.00000000 58.26811872
   1.72342752 -0.00000149 41.10062522
   1.72342752 -0.00000149 48.46304263
   1.72342752 -0.00000149 55.82162375
  -0.00000000  0.00000000 39.88113352
  -0.00000000  0.00000000 47.24090297
  -0.00000000  0.00000000 54.60152534
   1.72342752 -0.00000149 37.43251226
   1.72342752 -0.00000149 44.78592560
   1.72342752 -0.00000149 52.15064343
   1.72342752 -0.00000149 59.55018055
   0.86171247  1.49252852 34.94440153
   0.86171247  1.49252852 42.33213949
   0.86171247  1.49252852 49.69579619
   0.86171247  1.49252852 57.05175466
  -0.00000000  0.00000000 19.16710413
  -0.00000000  0.00000000 25.85700877
  -0.00000000  0.00000000 32.54314014
   1.72342752 -0.00000149 23.64184333
   1.72342752 -0.00000149 30.32861299
   0.86171247  1.49252852 21.42118931
   0.86171247  1.49252852 28.09438028
 


--------------------------------------------------------------------------------------------------------


 k-point  1 :   0.0000 0.0000 0.0000  plane waves:   17345
 k-point  2 :   0.0769 0.0000 0.0000  plane waves:   17319
 k-point  3 :   0.1538 0.0000 0.0000  plane waves:   17277
 k-point  4 :   0.2308 0.0000 0.0000  plane waves:   17152
 k-point  5 :   0.3077 0.0000 0.0000  plane waves:   17104
 k-point  6 :   0.3846 0.0000 0.0000  plane waves:   16998
 k-point  7 :   0.4615 0.0000 0.0000  plane waves:   16960
 k-point  8 :   0.0769 0.0769 0.0000  plane waves:   17287
 k-point  9 :   0.1538 0.0769 0.0000  plane waves:   17201
 k-point 10 :   0.2308 0.0769 0.0000  plane waves:   17097
 k-point 11 :   0.3077 0.0769 0.0000  plane waves:   17082
 k-point 12 :   0.3846 0.0769 0.0000  plane waves:   16974
 k-point 13 :   0.4615 0.0769 0.0000  plane waves:   16900
 k-point 14 :   0.1538 0.1538 0.0000  plane waves:   17137
 k-point 15 :   0.2308 0.1538 0.0000  plane waves:   17081
 k-point 16 :   0.3077 0.1538 0.0000  plane waves:   17052
 k-point 17 :   0.3846 0.1538 0.0000  plane waves:   16948
 k-point 18 :   0.2308 0.2308 0.0000  plane waves:   17072
 k-point 19 :   0.3077 0.2308 0.0000  plane waves:   17004
 k-point 20 :   0.3846 0.2308 0.0000  plane waves:   17046
 k-point 21 :   0.3077 0.3077 0.0000  plane waves:   17074

 maximum and minimum number of plane-waves per node :      4362     4217

 maximum number of plane-waves:     17345
 maximum index in each direction: 
   IXMAX=    5   IYMAX=    5   IZMAX=  152
   IXMIN=   -6   IYMIN=   -5   IZMIN= -152


 parallel 3D FFT for wavefunctions:
    minimum data exchange during FFTs selected (reduces bandwidth)
 parallel 3D FFT for charge:
    minimum data exchange during FFTs selected (reduces bandwidth)


 total amount of memory used by VASP MPI-rank0   119159. kBytes
=======================================================================

   base      :      30000. kBytes
   nonl-proj :      19532. kBytes
   fftplans  :      29125. kBytes
   grid      :      15257. kBytes
   one-center:         21. kBytes
   wavefun   :      25224. kBytes
 
     INWAV:  cpu time    0.0001: real time    0.0001
 initial charge density was supplied:
 number of electron     103.0000018 magnetization 
 keeping initial charge density in first step


--------------------------------------------------------------------------------------------------------


 Maximum index for augmentation-charges        12050 (set IRDMAX)


--------------------------------------------------------------------------------------------------------


 First call to EWALD:  gamma=   0.206
 Maximum number of real-space cells 8x 8x 1
 Maximum number of reciprocal cells 1x 1x22

    FEWALD:  cpu time    0.0020: real time    0.0021


--------------------------------------- Iteration      1(   1)  ---------------------------------------


    POTLOK:  cpu time    0.0881: real time    0.0901
    SETDIJ:  cpu time    0.1505: real time    0.1508
     EDDAV:  cpu time    7.5949: real time    7.7346
       DOS:  cpu time    0.0013: real time    0.0013
    --------------------------------------------
      LOOP:  cpu time    7.8349: real time    7.9768

 eigenvalue-minimisations  :  2944
 total energy-change (2. order) : 0.6754842E+03  (-0.3983606E+04)
 number of electron     103.0000018 magnetization 
 augmentation part      103.0000018 magnetization 

 Free energy of the ion-electron system (eV)
  ---------------------------------------------------
  alpha Z        PSCENC =        20.50574766
  Ewald energy   TEWEN  =    254963.19914709
  -Hartree energ DENC   =   -259821.79841810
  -exchange      EXHF   =         0.00000000
  -V(xc)+E(xc)   XCENC  =        27.17041948
  PAW double counting   =      3412.26297272    -3088.14750307
  entropy T*S    EENTRO =        -0.00842162
  eigenvalues    EBANDS =       210.91966217
  atomic energy  EATOM  =      4951.38056719
  Solvation  Ediel_sol  =         0.00000000
  ---------------------------------------------------
  free energy    TOTEN  =       675.48417352 eV

  energy without entropy =      675.49259514  energy(sigma->0) =      675.48838433


--------------------------------------------------------------------------------------------------------




--------------------------------------- Iteration      1(   2)  ---------------------------------------


     EDDAV:  cpu time    9.4741: real time    9.4926
       DOS:  cpu time    0.0019: real time    0.0027
    --------------------------------------------
      LOOP:  cpu time    9.4761: real time    9.4952

 eigenvalue-minimisations  :  3876
 total energy-change (2. order) :-0.7011612E+03  (-0.6571459E+03)
 number of electron     103.0000018 magnetization 
 augmentation part      103.0000018 magnetization 

 Free energy of the ion-electron system (eV)
  ---------------------------------------------------
  alpha Z        PSCENC =        20.50574766
  Ewald energy   TEWEN  =    254963.19914709
  -Hartree energ DENC   =   -259821.79841810
  -exchange      EXHF   =         0.00000000
  -V(xc)+E(xc)   XCENC  =        27.17041948
  PAW double counting   =      3412.26297272    -3088.14750307
  entropy T*S    EENTRO =        -0.00784744
  eigenvalues    EBANDS =      -490.24208114
  atomic energy  EATOM  =      4951.38056719
  Solvation  Ediel_sol  =         0.00000000
  ---------------------------------------------------
  free energy    TOTEN  =       -25.67699561 eV

  energy without entropy =      -25.66914818  energy(sigma->0) =      -25.67307189


--------------------------------------------------------------------------------------------------------




--------------------------------------- Iteration      1(   3)  ---------------------------------------


     EDDAV:  cpu time    8.7304: real time    8.7479
       DOS:  cpu time    0.0014: real time    0.0027
    --------------------------------------------
      LOOP:  cpu time    8.7317: real time    8.7505

 eigenvalue-minimisations  :  3480
 total energy-change (2. order) :-0.1161185E+03  (-0.1148881E+03)
 number of electron     103.0000018 magnetization 
 augmentation part      103.0000018 magnetization 

 Free energy of the ion-electron system (eV)
  ---------------------------------------------------
  alpha Z        PSCENC =        20.50574766
  Ewald energy   TEWEN  =    254963.19914709
  -Hartree energ DENC   =   -259821.79841810
  -exchange      EXHF   =         0.00000000
  -V(xc)+E(xc)   XCENC  =        27.17041948
  PAW double counting   =      3412.26297272    -3088.14750307
  entropy T*S    EENTRO =        -0.00477332
  eigenvalues    EBANDS =      -606.36370507
  atomic energy  EATOM  =      4951.38056719
  Solvation  Ediel_sol  =         0.00000000
  ---------------------------------------------------
  free energy    TOTEN  =      -141.79554542 eV

  energy without entropy =     -141.79077210  energy(sigma->0) =     -141.79315876


--------------------------------------------------------------------------------------------------------




--------------------------------------- Iteration      1(   4)  ---------------------------------------


     EDDAV:  cpu time    8.6247: real time    8.6426
       DOS:  cpu time    0.0013: real time    0.0013
    --------------------------------------------
      LOOP:  cpu time    8.6260: real time    8.6439

 eigenvalue-minimisations  :  3408
 total energy-change (2. order) :-0.3609561E+01  (-0.3597379E+01)
 number of electron     103.0000018 magnetization 
 augmentation part      103.0000018 magnetization 

 Free energy of the ion-electron system (eV)
  ---------------------------------------------------
  alpha Z        PSCENC =        20.50574766
  Ewald energy   TEWEN  =    254963.19914709
  -Hartree energ DENC   =   -259821.79841810
  -exchange      EXHF   =         0.00000000
  -V(xc)+E(xc)   XCENC  =        27.17041948
  PAW double counting   =      3412.26297272    -3088.14750307
  entropy T*S    EENTRO =        -0.00492456
  eigenvalues    EBANDS =      -609.97311518
  atomic energy  EATOM  =      4951.38056719
  Solvation  Ediel_sol  =         0.00000000
  ---------------------------------------------------
  free energy    TOTEN  =      -145.40510678 eV

  energy without entropy =     -145.40018222  energy(sigma->0) =     -145.40264450


--------------------------------------------------------------------------------------------------------




--------------------------------------- Iteration      1(   5)  ---------------------------------------


     EDDAV:  cpu time    9.3429: real time    9.3607
       DOS:  cpu time    0.0013: real time    0.0025
    --------------------------------------------
      LOOP:  cpu time    9.3442: real time    9.3632

 eigenvalue-minimisations  :  3892
 total energy-change (2. order) :-0.1180124E+00  (-0.1178970E+00)
 number of electron     103.0000018 magnetization 
 augmentation part      103.0000018 magnetization 

 Free energy of the ion-electron system (eV)
  ---------------------------------------------------
  alpha Z        PSCENC =        20.50574766
  Ewald energy   TEWEN  =    254963.19914709
  -Hartree energ DENC   =   -259821.79841810
  -exchange      EXHF   =         0.00000000
  -V(xc)+E(xc)   XCENC  =        27.17041948
  PAW double counting   =      3412.26297272    -3088.14750307
  entropy T*S    EENTRO =        -0.00493762
  eigenvalues    EBANDS =      -610.09111452
  atomic energy  EATOM  =      4951.38056719
  Solvation  Ediel_sol  =         0.00000000
  ---------------------------------------------------
  free energy    TOTEN  =      -145.52311917 eV

  energy without entropy =     -145.51818155  energy(sigma->0) =     -145.52065036


--------------------------------------------------------------------------------------------------------




--------------------------------------- Iteration      1(   6)  ---------------------------------------


     EDDAV:  cpu time    8.1758: real time    8.1911
       DOS:  cpu time    0.0013: real time    0.0013
    --------------------------------------------
      LOOP:  cpu time    8.1771: real time    8.1924

 eigenvalue-minimisations  :  3768
 total energy-change (2. order) :-0.3742961E-02  (-0.3741507E-02)
 number of electron     103.0000018 magnetization 
 augmentation part      103.0000018 magnetization 

 Free energy of the ion-electron system (eV)
  ---------------------------------------------------
  alpha Z        PSCENC =        20.50574766
  Ewald energy   TEWEN  =    254963.19914709
  -Hartree energ DENC   =   -259821.79841810
  -exchange      EXHF   =         0.00000000
  -V(xc)+E(xc)   XCENC  =        27.17041948
  PAW double counting   =      3412.26297272    -3088.14750307
  entropy T*S    EENTRO =        -0.00493649
  eigenvalues    EBANDS =      -610.09485861
  atomic energy  EATOM  =      4951.38056719
  Solvation  Ediel_sol  =         0.00000000
  ---------------------------------------------------
  free energy    TOTEN  =      -145.52686213 eV

  energy without entropy =     -145.52192564  energy(sigma->0) =     -145.52439388


--------------------------------------------------------------------------------------------------------




--------------------------------------- Iteration      1(   7)  ---------------------------------------


     EDDAV:  cpu time    9.7370: real time    9.7549
       DOS:  cpu time    0.0013: real time    0.0013
    --------------------------------------------
      LOOP:  cpu time    9.7383: real time    9.7562

 eigenvalue-minimisations  :  4228
 total energy-change (2. order) :-0.2217329E-03  (-0.2217189E-03)
 number of electron     103.0000018 magnetization 
 augmentation part      103.0000018 magnetization 

 Free energy of the ion-electron system (eV)
  ---------------------------------------------------
  alpha Z        PSCENC =        20.50574766
  Ewald energy   TEWEN  =    254963.19914709
  -Hartree energ DENC   =   -259821.79841810
  -exchange      EXHF   =         0.00000000
  -V(xc)+E(xc)   XCENC  =        27.17041948
  PAW double counting   =      3412.26297272    -3088.14750307
  entropy T*S    EENTRO =        -0.00493649
  eigenvalues    EBANDS =      -610.09508033
  atomic energy  EATOM  =      4951.38056719
  Solvation  Ediel_sol  =         0.00000000
  ---------------------------------------------------
  free energy    TOTEN  =      -145.52708386 eV

  energy without entropy =     -145.52214737  energy(sigma->0) =     -145.52461561


--------------------------------------------------------------------------------------------------------




--------------------------------------- Iteration      1(   8)  ---------------------------------------


     EDDAV:  cpu time    9.5153: real time    9.5332
       DOS:  cpu time    0.0012: real time    0.0012
    --------------------------------------------
      LOOP:  cpu time    9.5166: real time    9.5344

 eigenvalue-minimisations  :  3868
 total energy-change (2. order) :-0.6823401E-05  (-0.6823097E-05)
 number of electron     103.0000018 magnetization 
 augmentation part      103.0000018 magnetization 

 Free energy of the ion-electron system (eV)
  ---------------------------------------------------
  alpha Z        PSCENC =        20.50574766
  Ewald energy   TEWEN  =    254963.19914709
  -Hartree energ DENC   =   -259821.79841810
  -exchange      EXHF   =         0.00000000
  -V(xc)+E(xc)   XCENC  =        27.17041948
  PAW double counting   =      3412.26297272    -3088.14750307
  entropy T*S    EENTRO =        -0.00493649
  eigenvalues    EBANDS =      -610.09508716
  atomic energy  EATOM  =      4951.38056719
  Solvation  Ediel_sol  =         0.00000000
  ---------------------------------------------------
  free energy    TOTEN  =      -145.52709068 eV

  energy without entropy =     -145.52215419  energy(sigma->0) =     -145.52462244


--------------------------------------------------------------------------------------------------------




--------------------------------------- Iteration      1(   9)  ---------------------------------------


     EDDAV:  cpu time   10.0926: real time   10.1113
       DOS:  cpu time    0.0015: real time    0.0025
    --------------------------------------------
      LOOP:  cpu time   10.0940: real time   10.1139

 eigenvalue-minimisations  :  4108
 total energy-change (2. order) :-0.4655221E-06  (-0.4652715E-06)
 number of electron     103.0000018 magnetization 
 augmentation part      103.0000018 magnetization 

 Free energy of the ion-electron system (eV)
  ---------------------------------------------------
  alpha Z        PSCENC =        20.50574766
  Ewald energy   TEWEN  =    254963.19914709
  -Hartree energ DENC   =   -259821.79841810
  -exchange      EXHF   =         0.00000000
  -V(xc)+E(xc)   XCENC  =        27.17041948
  PAW double counting   =      3412.26297272    -3088.14750307
  entropy T*S    EENTRO =        -0.00493649
  eigenvalues    EBANDS =      -610.09508762
  atomic energy  EATOM  =      4951.38056719
  Solvation  Ediel_sol  =         0.00000000
  ---------------------------------------------------
  free energy    TOTEN  =      -145.52709115 eV

  energy without entropy =     -145.52215465  energy(sigma->0) =     -145.52462290


--------------------------------------------------------------------------------------------------------




--------------------------------------- Iteration      1(  10)  ---------------------------------------


     EDDAV:  cpu time    7.5524: real time    7.5680
       DOS:  cpu time    0.0013: real time    0.0013
    --------------------------------------------
      LOOP:  cpu time    7.5537: real time    7.5693

 eigenvalue-minimisations  :  2892
 total energy-change (2. order) :-0.3466084E-07  (-0.3495017E-07)
 number of electron     103.0000018 magnetization 
 augmentation part      103.0000018 magnetization 

 Free energy of the ion-electron system (eV)
  ---------------------------------------------------
  alpha Z        PSCENC =        20.50574766
  Ewald energy   TEWEN  =    254963.19914709
  -Hartree energ DENC   =   -259821.79841810
  -exchange      EXHF   =         0.00000000
  -V(xc)+E(xc)   XCENC  =        27.17041948
  PAW double counting   =      3412.26297272    -3088.14750307
  entropy T*S    EENTRO =        -0.00493649
  eigenvalues    EBANDS =      -610.09508766
  atomic energy  EATOM  =      4951.38056719
  Solvation  Ediel_sol  =         0.00000000
  ---------------------------------------------------
  free energy    TOTEN  =      -145.52709118 eV

  energy without entropy =     -145.52215469  energy(sigma->0) =     -145.52462294


--------------------------------------------------------------------------------------------------------




--------------------------------------- Iteration      1(  11)  ---------------------------------------


     EDDAV:  cpu time    6.8803: real time    6.8936
       DOS:  cpu time    0.0014: real time    0.0014
    --------------------------------------------
      LOOP:  cpu time    6.8817: real time    6.8949

 eigenvalue-minimisations  :  2460
 total energy-change (2. order) :-0.4190952E-08  (-0.3929016E-08)
 number of electron     103.0000018 magnetization 
 augmentation part      103.0000018 magnetization 

 Free energy of the ion-electron system (eV)
  ---------------------------------------------------
  alpha Z        PSCENC =        20.50574766
  Ewald energy   TEWEN  =    254963.19914709
  -Hartree energ DENC   =   -259821.79841810
  -exchange      EXHF   =         0.00000000
  -V(xc)+E(xc)   XCENC  =        27.17041948
  PAW double counting   =      3412.26297272    -3088.14750307
  entropy T*S    EENTRO =        -0.00493649
  eigenvalues    EBANDS =      -610.09508766
  atomic energy  EATOM  =      4951.38056719
  Solvation  Ediel_sol  =         0.00000000
  ---------------------------------------------------
  free energy    TOTEN  =      -145.52709119 eV

  energy without entropy =     -145.52215469  energy(sigma->0) =     -145.52462294


--------------------------------------------------------------------------------------------------------




 average (electrostatic) potential at core
  the test charge radii are     0.7215  1.0714  1.0406
  (the norm of the test charge is              1.0000)
       1 -74.5849       2 -74.4503       3 -74.3839       4 -74.3542       5 -74.2965
       6 -74.2734       7 -74.3199       8 -74.4134       9 -74.3268      10 -74.2415
      11 -56.3493      12 -56.2697      13 -56.1789      14 -56.3965      15 -56.2987
      16 -56.2126      17 -56.6104      18 -56.5270      19 -56.3255      20 -56.2424
      21 -56.1689      22 -78.6585      23 -78.5507      24 -78.4451      25 -78.5271
      26 -78.5322      27 -78.5159      28 -78.5431
 
 
 
 E-fermi :   2.0720     XC(G=0):  -5.6004     alpha+bet : -7.4145


 k-point     1 :       0.0000    0.0000    0.0000
  band No.  band energies     occupation 
      1     -18.8166      2.00000
      2     -18.7059      2.00000
      3     -18.6072      2.00000
      4     -18.4785      2.00000
      5     -18.3223      2.00000
      6     -18.1503      2.00000
      7     -17.9734      2.00000
      8     -17.8103      2.00000
      9     -17.6746      2.00000
     10     -17.5525      2.00000
     11      -8.5951      2.00000
     12      -8.2068      2.00000
     13      -7.5800      2.00000
     14      -6.7631      2.00000
     15      -6.1575      2.00000
     16      -5.9873      2.00000
     17      -5.7872      2.00000
     18      -5.5562      2.00000
     19      -5.2416      2.00000
     20      -4.8262      2.00000
     21      -4.4055      2.00000
     22      -4.0559      2.00000
     23      -3.5674      2.00000
     24      -3.0264      2.00000
     25      -2.6350      2.00000
     26      -2.2616      2.00000
     27      -2.2616      2.00000
     28      -2.2495      2.00000
     29      -2.1666      2.00000
     30      -2.1666      2.00000
     31      -2.0998      2.00000
     32      -2.0998      2.00000
     33      -2.0339      2.00000
     34      -2.0339      2.00000
     35      -1.9549      2.00000
     36      -1.9549      2.00000
     37      -1.8708      2.00000
     38      -1.8708      2.00000
     39      -1.8211      2.00000
     40      -1.7854      2.00000
     41      -1.7854      2.00000
     42      -1.7046      2.00000
     43      -1.7046      2.00000
     44      -1.6283      2.00000
     45      -1.6283      2.00000
     46      -1.5442      2.00000
     47      -1.5442      2.00000
     48      -1.3894      2.00000
     49      -0.2492      2.00000
     50       0.4546      2.00000
     51       2.0633      1.19368
     52       3.1263      0.00000
     53       3.4183      0.00000
     54       3.7346      0.00000
     55       4.1484      0.00000
     56       4.5824      0.00000
     57       4.9572      0.00000
     58       5.2881      0.00000
     59       5.6367      0.00000
     60       5.9116      0.00000
     61       6.0408      0.00000
     62       6.1422      0.00000
     63       6.2408      0.00000
     64       6.3193      0.00000
     65       6.3416      0.00000
     66       6.4594      0.00000
     67       6.6164      0.00000
     68       6.8001      0.00000

 k-point     2 :       0.0769    0.0000    0.0000
  band No.  band energies     occupation 
      1     -18.7627      2.00000
      2     -18.6527      2.00000
      3     -18.5559      2.00000
      4     -18.4305      2.00000
      5     -18.2782      2.00000
      6     -18.1108      2.00000
      7     -17.9386      2.00000
      8     -17.7803      2.00000
      9     -17.6483      2.00000
     10     -17.5284      2.00000
     11      -8.4642      2.00000
     12      -8.0764      2.00000
     13      -7.4503      2.00000
     14      -6.6361      2.00000
     15      -6.0730      2.00000
     16      -5.9039      2.00000
     17      -5.7010      2.00000
     18      -5.4734      2.00000
     19      -5.1810      2.00000
     20      -4.7858      2.00000
     21      -4.3609      2.00000
     22      -4.0203      2.00000
     23      -3.5968      2.00000
     24      -3.0919      2.00000
     25      -2.6668      2.00000
     26      -2.4897      2.00000
     27      -2.4032      2.00000
     28      -2.3641      2.00000
     29      -2.3058      2.00000
     30      -2.3052      2.00000
     31      -2.2373      2.00000
     32      -2.2106      2.00000
     33      -2.1542      2.00000
     34      -2.1436      2.00000
     35      -2.0915      2.00000
     36      -2.0771      2.00000
     37      -2.0043      2.00000
     38      -1.9975      2.00000
     39      -1.9478      2.00000
     40      -1.9126      2.00000
     41      -1.8793      2.00000
     42      -1.8263      2.00000
     43      -1.7747      2.00000
     44      -1.7449      2.00000
     45      -1.6872      2.00000
     46      -1.6682      2.00000
     47      -1.5837      2.00000
     48      -1.2746      2.00000
     49      -0.1218      2.00000
     50       0.5832      2.00000
     51       2.2126      0.00007
     52       3.4434      0.00000
     53       3.6714      0.00000
     54       3.9732      0.00000
     55       4.3759      0.00000
     56       4.7913      0.00000
     57       5.1522      0.00000
     58       5.4852      0.00000
     59       5.8441      0.00000
     60       6.1084      0.00000
     61       6.2491      0.00000
     62       6.3946      0.00000
     63       6.4580      0.00000
     64       6.4931      0.00000
     65       6.5553      0.00000
     66       6.6080      0.00000
     67       6.7566      0.00000
     68       6.9356      0.00000

 k-point     3 :       0.1538    0.0000    0.0000
  band No.  band energies     occupation 
      1     -18.6083      2.00000
      2     -18.5005      2.00000
      3     -18.4093      2.00000
      4     -18.2936      2.00000
      5     -18.1531      2.00000
      6     -17.9993      2.00000
      7     -17.8414      2.00000
      8     -17.6967      2.00000
      9     -17.5754      2.00000
     10     -17.4616      2.00000
     11      -8.0724      2.00000
     12      -7.6858      2.00000
     13      -7.0622      2.00000
     14      -6.2586      2.00000
     15      -5.8318      2.00000
     16      -5.6719      2.00000
     17      -5.4731      2.00000
     18      -5.2404      2.00000
     19      -5.0057      2.00000
     20      -4.7029      2.00000
     21      -4.3361      2.00000
     22      -3.9748      2.00000
     23      -3.6862      2.00000
     24      -3.4132      2.00000
     25      -3.1500      2.00000
     26      -3.0291      2.00000
     27      -2.9476      2.00000
     28      -2.8979      2.00000
     29      -2.8112      2.00000
     30      -2.7405      2.00000
     31      -2.6496      2.00000
     32      -2.4832      2.00000
     33      -2.4250      2.00000
     34      -2.3293      2.00000
     35      -2.3100      2.00000
     36      -2.2618      2.00000
     37      -2.1941      2.00000
     38      -2.1663      2.00000
     39      -2.1128      2.00000
     40      -2.0589      2.00000
     41      -2.0260      2.00000
     42      -1.9377      2.00000
     43      -1.9352      2.00000
     44      -1.8547      2.00000
     45      -1.7951      2.00000
     46      -1.7769      2.00000
     47      -1.6915      2.00000
     48      -0.9347      2.00000
     49       0.1852      2.00000
     50       0.9446      2.00000
     51       2.5965      0.00000
     52       4.0883      0.00000
     53       4.3148      0.00000
     54       4.6059      0.00000
     55       4.9589      0.00000
     56       5.3142      0.00000
     57       5.6165      0.00000
     58       5.9447      0.00000
     59       6.3016      0.00000
     60       6.4984      0.00000
     61       6.7231      0.00000
     62       6.8202      0.00000
     63       6.8773      0.00000
     64       6.9082      0.00000
     65       6.9533      0.00000
     66       7.0578      0.00000
     67       7.1154      0.00000
     68       7.2140      0.00000

 k-point     4 :       0.2308    0.0000    0.0000
  band No.  band energies     occupation 
      1     -18.3756      2.00000
      2     -18.2716      2.00000
      3     -18.1891      2.00000
      4     -18.0894      2.00000
      5     -17.9683      2.00000
      6     -17.8366      2.00000
      7     -17.7019      2.00000
      8     -17.5787      2.00000
      9     -17.4737      2.00000
     10     -17.3696      2.00000
     11      -7.4218      2.00000
     12      -7.0374      2.00000
     13      -6.4190      2.00000
     14      -5.6546      2.00000
     15      -5.4739      2.00000
     16      -5.3489      2.00000
     17      -5.2045      2.00000
     18      -5.0323      2.00000
     19      -4.8471      2.00000
     20      -4.6578      2.00000
     21      -4.4711      2.00000
     22      -4.2890      2.00000
     23      -4.1098      2.00000
     24      -3.9409      2.00000
     25      -3.7845      2.00000
     26      -3.7067      2.00000
     27      -3.6308      2.00000
     28      -3.5342      2.00000
     29      -3.3283      2.00000
     30      -3.1234      2.00000
     31      -2.9506      2.00000
     32      -2.7120      2.00000
     33      -2.5853      2.00000
     34      -2.4892      2.00000
     35      -2.4678      2.00000
     36      -2.4212      2.00000
     37      -2.3522      2.00000
     38      -2.2690      2.00000
     39      -2.2672      2.00000
     40      -2.1802      2.00000
     41      -2.0995      2.00000
     42      -2.0898      2.00000
     43      -2.0049      2.00000
     44      -1.9348      2.00000
     45      -1.9259      2.00000
     46      -1.8396      2.00000
     47      -1.6306      2.00000
     48      -0.3593      2.00000
     49       0.6526      2.00000
     50       1.5084      2.00000
     51       3.0822      0.00000
     52       3.9452      0.00000
     53       4.4369      0.00000
     54       4.9110      0.00000
     55       5.0572      0.00000
     56       5.1853      0.00000
     57       5.4205      0.00000
     58       5.7094      0.00000
     59       5.8151      0.00000
     60       6.0209      0.00000
     61       6.3052      0.00000
     62       6.5454      0.00000
     63       6.8069      0.00000
     64       6.9658      0.00000
     65       7.2759      0.00000
     66       7.4614      0.00000
     67       7.5440      0.00000
     68       7.6184      0.00000

 k-point     5 :       0.3077    0.0000    0.0000
  band No.  band energies     occupation 
      1     -18.1028      2.00000
      2     -18.0041      2.00000
      3     -17.9316      2.00000
      4     -17.8536      2.00000
      5     -17.7590      2.00000
      6     -17.6570      2.00000
      7     -17.5529      2.00000
      8     -17.4572      2.00000
      9     -17.3716      2.00000
     10     -17.2800      2.00000
     11      -6.5157      2.00000
     12      -6.1358      2.00000
     13      -5.5367      2.00000
     14      -5.2968      2.00000
     15      -5.2780      2.00000
     16      -5.1664      2.00000
     17      -5.1498      2.00000
     18      -5.0321      2.00000
     19      -5.0050      2.00000
     20      -4.8883      2.00000
     21      -4.7926      2.00000
     22      -4.6571      2.00000
     23      -4.5464      2.00000
     24      -4.5059      2.00000
     25      -4.3972      2.00000
     26      -4.2070      2.00000
     27      -3.8900      2.00000
     28      -3.5974      2.00000
     29      -3.4123      2.00000
     30      -3.1195      2.00000
     31      -2.8212      2.00000
     32      -2.7469      2.00000
     33      -2.6505      2.00000
     34      -2.5983      2.00000
     35      -2.5821      2.00000
     36      -2.5121      2.00000
     37      -2.4554      2.00000
     38      -2.4276      2.00000
     39      -2.3372      2.00000
     40      -2.2944      2.00000
     41      -2.2451      2.00000
     42      -2.2055      2.00000
     43      -2.1588      2.00000
     44      -2.0916      2.00000
     45      -2.0789      2.00000
     46      -1.9919      2.00000
     47      -0.8572      2.00000
     48       0.4308      2.00000
     49       1.3069      2.00000
     50       1.5797      2.00000
     51       1.9108      1.99999
     52       2.4118      0.00000
     53       2.8657      0.00000
     54       3.4975      0.00000
     55       4.0787      0.00000
     56       4.5427      0.00000
     57       5.4539      0.00000
     58       5.8054      0.00000
     59       5.8986      0.00000
     60       6.1071      0.00000
     61       6.3631      0.00000
     62       6.6291      0.00000
     63       6.7956      0.00000
     64       6.9819      0.00000
     65       7.2377      0.00000
     66       7.3443      0.00000
     67       7.4656      0.00000
     68       7.6973      0.00000

 k-point     6 :       0.3846    0.0000    0.0000
  band No.  band energies     occupation 
      1     -17.8427      2.00000
      2     -17.7518      2.00000
      3     -17.6884      2.00000
      4     -17.6333      2.00000
      5     -17.5712      2.00000
      6     -17.5037      2.00000
      7     -17.4351      2.00000
      8     -17.3683      2.00000
      9     -17.3016      2.00000
     10     -17.2251      2.00000
     11      -5.7950      2.00000
     12      -5.6631      2.00000
     13      -5.5193      2.00000
     14      -5.4612      2.00000
     15      -5.3668      2.00000
     16      -5.3433      2.00000
     17      -5.3097      2.00000
     18      -5.2142      2.00000
     19      -5.1332      2.00000
     20      -5.0459      2.00000
     21      -4.9765      2.00000
     22      -4.9650      2.00000
     23      -4.4249      2.00000
     24      -4.2845      2.00000
     25      -4.0646      2.00000
     26      -3.7605      2.00000
     27      -3.5018      2.00000
     28      -3.3453      2.00000
     29      -3.0764      2.00000
     30      -2.8837      2.00000
     31      -2.8750      2.00000
     32      -2.7953      2.00000
     33      -2.7784      2.00000
     34      -2.7098      2.00000
     35      -2.6852      2.00000
     36      -2.6392      2.00000
     37      -2.5539      2.00000
     38      -2.4626      2.00000
     39      -2.4607      2.00000
     40      -2.3803      2.00000
     41      -2.3695      2.00000
     42      -2.2824      2.00000
     43      -2.2307      2.00000
     44      -2.2019      2.00000
     45      -2.1144      2.00000
     46      -1.1999      2.00000
     47      -0.4513      2.00000
     48      -0.1393      2.00000
     49       0.1392      2.00000
     50       0.6097      2.00000
     51       1.3590      2.00000
     52       1.7322      2.00000
     53       2.1538      0.02070
     54       2.4373      0.00000
     55       3.3925      0.00000
     56       3.6903      0.00000
     57       4.7293      0.00000
     58       5.2102      0.00000
     59       5.9542      0.00000
     60       6.0519      0.00000
     61       6.2415      0.00000
     62       6.5259      0.00000
     63       6.7198      0.00000
     64       6.8898      0.00000
     65       7.0062      0.00000
     66       7.2347      0.00000
     67       7.3344      0.00000
     68       7.5931      0.00000

 k-point     7 :       0.4615    0.0000    0.0000
  band No.  band energies     occupation 
      1     -17.6662      2.00000
      2     -17.5851      2.00000
      3     -17.5304      2.00000
      4     -17.4875      2.00000
      5     -17.4520      2.00000
      6     -17.4157      2.00000
      7     -17.3775      2.00000
      8     -17.3338      2.00000
      9     -17.2822      2.00000
     10     -17.2210      2.00000
     11      -6.1066      2.00000
     12      -5.9733      2.00000
     13      -5.8246      2.00000
     14      -5.6508      2.00000
     15      -5.6092      2.00000
     16      -5.5099      2.00000
     17      -5.4475      2.00000
     18      -5.3950      2.00000
     19      -5.2968      2.00000
     20      -5.2495      2.00000
     21      -3.9625      2.00000
     22      -3.8572      2.00000
     23      -3.6727      2.00000
     24      -3.5610      2.00000
     25      -3.4583      2.00000
     26      -3.2938      2.00000
     27      -3.1700      2.00000
     28      -3.1133      2.00000
     29      -2.9706      2.00000
     30      -2.9451      2.00000
     31      -2.9434      2.00000
     32      -2.8485      2.00000
     33      -2.8309      2.00000
     34      -2.7798      2.00000
     35      -2.7089      2.00000
     36      -2.6233      2.00000
     37      -2.5425      2.00000
     38      -2.5317      2.00000
     39      -2.4381      2.00000
     40      -2.3506      2.00000
     41      -2.3198      2.00000
     42      -2.3098      2.00000
     43      -2.2699      2.00000
     44      -2.1822      2.00000
     45      -2.1111      2.00000
     46      -1.9345      2.00000
     47      -1.3375      2.00000
     48      -1.1198      2.00000
     49      -0.5088      2.00000
     50       0.1551      2.00000
     51       0.6545      2.00000
     52       1.5616      2.00000
     53       1.8350      2.00000
     54       2.8605      0.00000
     55       3.0929      0.00000
     56       3.1822      0.00000
     57       4.3498      0.00000
     58       4.8031      0.00000
     59       4.8904      0.00000
     60       5.7663      0.00000
     61       6.3054      0.00000
     62       6.4678      0.00000
     63       6.6628      0.00000
     64       6.6699      0.00000
     65       7.0076      0.00000
     66       7.0178      0.00000
     67       7.2391      0.00000
     68       7.4960      0.00000

 k-point     8 :       0.0769    0.0769    0.0000
  band No.  band energies     occupation 
      1     -18.6585      2.00000
      2     -18.5500      2.00000
      3     -18.4570      2.00000
      4     -18.3380      2.00000
      5     -18.1936      2.00000
      6     -18.0353      2.00000
      7     -17.8727      2.00000
      8     -17.7234      2.00000
      9     -17.5987      2.00000
     10     -17.4828      2.00000
     11      -8.2029      2.00000
     12      -7.8159      2.00000
     13      -7.1914      2.00000
     14      -6.3838      2.00000
     15      -5.9101      2.00000
     16      -5.7461      2.00000
     17      -5.5434      2.00000
     18      -5.3130      2.00000
     19      -5.0635      2.00000
     20      -4.7244      2.00000
     21      -4.3261      2.00000
     22      -3.9630      2.00000
     23      -3.6616      2.00000
     24      -3.2988      2.00000
     25      -2.9618      2.00000
     26      -2.8363      2.00000
     27      -2.7414      2.00000
     28      -2.7114      2.00000
     29      -2.6510      2.00000
     30      -2.5672      2.00000
     31      -2.5063      2.00000
     32      -2.4370      2.00000
     33      -2.3730      2.00000
     34      -2.3136      2.00000
     35      -2.2744      2.00000
     36      -2.2065      2.00000
     37      -2.1958      2.00000
     38      -2.1359      2.00000
     39      -2.0605      2.00000
     40      -2.0521      2.00000
     41      -1.9677      2.00000
     42      -1.9229      2.00000
     43      -1.8730      2.00000
     44      -1.8404      2.00000
     45      -1.7753      2.00000
     46      -1.7531      2.00000
     47      -1.6809      2.00000
     48      -1.0485      2.00000
     49       0.0890      2.00000
     50       0.8269      2.00000
     51       2.4763      0.00000
     52       3.9216      0.00000
     53       4.1118      0.00000
     54       4.4119      0.00000
     55       4.7826      0.00000
     56       5.1598      0.00000
     57       5.4884      0.00000
     58       5.8195      0.00000
     59       6.1908      0.00000
     60       6.4365      0.00000
     61       6.6290      0.00000
     62       6.7338      0.00000
     63       6.7854      0.00000
     64       6.8805      0.00000
     65       6.9273      0.00000
     66       7.0202      0.00000
     67       7.0632      0.00000
     68       7.1948      0.00000

 k-point     9 :       0.1538    0.0769    0.0000
  band No.  band energies     occupation 
      1     -18.4648      2.00000
      2     -18.3592      2.00000
      3     -18.2734      2.00000
      4     -18.1673      2.00000
      5     -18.0384      2.00000
      6     -17.8980      2.00000
      7     -17.7540      2.00000
      8     -17.6223      2.00000
      9     -17.5110      2.00000
     10     -17.4031      2.00000
     11      -7.6817      2.00000
     12      -7.2963      2.00000
     13      -6.6756      2.00000
     14      -5.8894      2.00000
     15      -5.6073      2.00000
     16      -5.4658      2.00000
     17      -5.2940      2.00000
     18      -5.0807      2.00000
     19      -4.8562      2.00000
     20      -4.6435      2.00000
     21      -4.4055      2.00000
     22      -4.1422      2.00000
     23      -3.8874      2.00000
     24      -3.6625      2.00000
     25      -3.4735      2.00000
     26      -3.4364      2.00000
     27      -3.3333      2.00000
     28      -3.3072      2.00000
     29      -3.2335      2.00000
     30      -3.1011      2.00000
     31      -2.9157      2.00000
     32      -2.6982      2.00000
     33      -2.5450      2.00000
     34      -2.4709      2.00000
     35      -2.4310      2.00000
     36      -2.3735      2.00000
     37      -2.2976      2.00000
     38      -2.2543      2.00000
     39      -2.1889      2.00000
     40      -2.1539      2.00000
     41      -2.0823      2.00000
     42      -2.0491      2.00000
     43      -1.9896      2.00000
     44      -1.9689      2.00000
     45      -1.8925      2.00000
     46      -1.8305      2.00000
     47      -1.7954      2.00000
     48      -0.5895      2.00000
     49       0.4701      2.00000
     50       1.2907      2.00000
     51       2.9327      0.00000
     52       4.4329      0.00000
     53       4.8920      0.00000
     54       5.1300      0.00000
     55       5.3121      0.00000
     56       5.4902      0.00000
     57       5.7548      0.00000
     58       5.8144      0.00000
     59       6.0739      0.00000
     60       6.2968      0.00000
     61       6.4118      0.00000
     62       6.7309      0.00000
     63       6.9057      0.00000
     64       7.0703      0.00000
     65       7.1451      0.00000
     66       7.2054      0.00000
     67       7.2461      0.00000
     68       7.3445      0.00000

 k-point    10 :       0.2308    0.0769    0.0000
  band No.  band energies     occupation 
      1     -18.2115      2.00000
      2     -18.1105      2.00000
      3     -18.0340      2.00000
      4     -17.9467      2.00000
      5     -17.8408      2.00000
      6     -17.7261      2.00000
      7     -17.6091      2.00000
      8     -17.5019      2.00000
      9     -17.4084      2.00000
     10     -17.3114      2.00000
     11      -6.9033      2.00000
     12      -6.5210      2.00000
     13      -5.9093      2.00000
     14      -5.3059      2.00000
     15      -5.2115      2.00000
     16      -5.1523      2.00000
     17      -5.0898      2.00000
     18      -5.0178      2.00000
     19      -4.9210      2.00000
     20      -4.7930      2.00000
     21      -4.6488      2.00000
     22      -4.5028      2.00000
     23      -4.3607      2.00000
     24      -4.2256      2.00000
     25      -4.0913      2.00000
     26      -4.0382      2.00000
     27      -3.8917      2.00000
     28      -3.7215      2.00000
     29      -3.4504      2.00000
     30      -3.1445      2.00000
     31      -2.8607      2.00000
     32      -2.7444      2.00000
     33      -2.6607      2.00000
     34      -2.6248      2.00000
     35      -2.5678      2.00000
     36      -2.5219      2.00000
     37      -2.4902      2.00000
     38      -2.4375      2.00000
     39      -2.3942      2.00000
     40      -2.3315      2.00000
     41      -2.2900      2.00000
     42      -2.2343      2.00000
     43      -2.1660      2.00000
     44      -2.1000      2.00000
     45      -2.0547      2.00000
     46      -1.9390      2.00000
     47      -1.1921      2.00000
     48       0.1019      2.00000
     49       1.0317      2.00000
     50       1.9063      2.00000
     51       2.7910      0.00000
     52       3.2368      0.00000
     53       3.8227      0.00000
     54       3.9902      0.00000
     55       4.7069      0.00000
     56       5.2821      0.00000
     57       5.6634      0.00000
     58       5.7290      0.00000
     59       5.9303      0.00000
     60       6.0709      0.00000
     61       6.2107      0.00000
     62       6.4187      0.00000
     63       6.4772      0.00000
     64       6.7153      0.00000
     65       6.7973      0.00000
     66       6.9945      0.00000
     67       7.0852      0.00000
     68       7.3845      0.00000

 k-point    11 :       0.3077    0.0769    0.0000
  band No.  band energies     occupation 
      1     -17.9437      2.00000
      2     -17.8492      2.00000
      3     -17.7821      2.00000
      4     -17.7176      2.00000
      5     -17.6411      2.00000
      6     -17.5586      2.00000
      7     -17.4746      2.00000
      8     -17.3957      2.00000
      9     -17.3213      2.00000
     10     -17.2380      2.00000
     11      -5.8723      2.00000
     12      -5.5271      2.00000
     13      -5.4917      2.00000
     14      -5.3851      2.00000
     15      -5.3239      2.00000
     16      -5.2438      2.00000
     17      -5.1942      2.00000
     18      -5.0717      2.00000
     19      -5.0492      2.00000
     20      -4.9166      2.00000
     21      -4.8808      2.00000
     22      -4.8041      2.00000
     23      -4.7362      2.00000
     24      -4.5285      2.00000
     25      -4.2334      2.00000
     26      -4.0025      2.00000
     27      -3.8050      2.00000
     28      -3.4721      2.00000
     29      -3.1515      2.00000
     30      -2.9607      2.00000
     31      -2.9030      2.00000
     32      -2.8417      2.00000
     33      -2.8159      2.00000
     34      -2.7743      2.00000
     35      -2.7337      2.00000
     36      -2.6902      2.00000
     37      -2.6519      2.00000
     38      -2.5793      2.00000
     39      -2.5356      2.00000
     40      -2.4347      2.00000
     41      -2.3906      2.00000
     42      -2.3161      2.00000
     43      -2.2385      2.00000
     44      -2.2067      2.00000
     45      -2.0890      2.00000
     46      -1.6575      2.00000
     47      -0.2972      2.00000
     48       0.6249      2.00000
     49       0.8451      2.00000
     50       1.1994      2.00000
     51       1.7528      2.00000
     52       1.7895      2.00000
     53       2.5217      0.00000
     54       3.0442      0.00000
     55       3.5342      0.00000
     56       4.5103      0.00000
     57       4.6873      0.00000
     58       5.3606      0.00000
     59       5.7420      0.00000
     60       5.9701      0.00000
     61       6.2403      0.00000
     62       6.3292      0.00000
     63       6.4050      0.00000
     64       6.4477      0.00000
     65       6.6723      0.00000
     66       6.9794      0.00000
     67       7.2144      0.00000
     68       7.3348      0.00000

 k-point    12 :       0.3846    0.0769    0.0000
  band No.  band energies     occupation 
      1     -17.7210      2.00000
      2     -17.6356      2.00000
      3     -17.5768      2.00000
      4     -17.5304      2.00000
      5     -17.4861      2.00000
      6     -17.4375      2.00000
      7     -17.3880      2.00000
      8     -17.3353      2.00000
      9     -17.2778      2.00000
     10     -17.2106      2.00000
     11      -5.9313      2.00000
     12      -5.7992      2.00000
     13      -5.6535      2.00000
     14      -5.5142      2.00000
     15      -5.4675      2.00000
     16      -5.3897      2.00000
     17      -5.3041      2.00000
     18      -5.2642      2.00000
     19      -5.1589      2.00000
     20      -5.1065      2.00000
     21      -4.5916      2.00000
     22      -4.2325      2.00000
     23      -4.0817      2.00000
     24      -3.8770      2.00000
     25      -3.6454      2.00000
     26      -3.5306      2.00000
     27      -3.3154      2.00000
     28      -3.1438      2.00000
     29      -3.0815      2.00000
     30      -3.0499      2.00000
     31      -2.9701      2.00000
     32      -2.9304      2.00000
     33      -2.9030      2.00000
     34      -2.8657      2.00000
     35      -2.7926      2.00000
     36      -2.7306      2.00000
     37      -2.6835      2.00000
     38      -2.6546      2.00000
     39      -2.5440      2.00000
     40      -2.5040      2.00000
     41      -2.4098      2.00000
     42      -2.3560      2.00000
     43      -2.2970      2.00000
     44      -2.2137      2.00000
     45      -1.6905      2.00000
     46      -1.3143      2.00000
     47      -0.9470      2.00000
     48      -0.5898      2.00000
     49      -0.2635      2.00000
     50       0.4772      2.00000
     51       1.0130      2.00000
     52       1.6326      2.00000
     53       2.3061      0.00000
     54       2.7187      0.00000
     55       2.7716      0.00000
     56       3.9560      0.00000
     57       4.1492      0.00000
     58       4.9096      0.00000
     59       5.2416      0.00000
     60       5.5287      0.00000
     61       5.5420      0.00000
     62       5.8003      0.00000
[...]
     65       6.8943      0.00000
     66       6.9384      0.00000
     67       7.2457      0.00000
     68       7.4139      0.00000

 k-point    19 :       0.3077    0.2308    0.0000
  band No.  band energies     occupation 
      1     -17.6066      2.00000
      2     -17.5261      2.00000
      3     -17.4722      2.00000
      4     -17.4302      2.00000
      5     -17.3958      2.00000
      6     -17.3621      2.00000
      7     -17.3267      2.00000
      8     -17.2864      2.00000
      9     -17.2377      2.00000
     10     -17.1801      2.00000
     11      -5.5385      2.00000
     12      -5.4144      2.00000
     13      -5.3079      2.00000
     14      -5.2803      2.00000
     15      -5.1971      2.00000
     16      -5.1493      2.00000
     17      -5.0880      2.00000
     18      -5.0196      2.00000
     19      -4.8876      2.00000
     20      -4.7247      2.00000
     21      -4.3822      2.00000
     22      -4.2154      2.00000
     23      -4.0847      2.00000
     24      -3.9363      2.00000
     25      -3.8286      2.00000
     26      -3.7951      2.00000
     27      -3.7472      2.00000
     28      -3.6507      2.00000
     29      -3.5778      2.00000
     30      -3.5094      2.00000
     31      -3.4579      2.00000
     32      -3.3505      2.00000
     33      -3.3229      2.00000
     34      -3.1806      2.00000
     35      -3.0689      2.00000
     36      -2.9162      2.00000
     37      -2.8079      2.00000
     38      -2.7807      2.00000
     39      -2.7128      2.00000
     40      -2.6303      2.00000
     41      -2.5442      2.00000
     42      -2.4567      2.00000
     43      -2.3376      2.00000
     44      -1.9842      2.00000
     45      -0.9652      2.00000
     46      -0.5696      2.00000
     47      -0.2055      2.00000
     48       0.1192      2.00000
     49       0.4577      2.00000
     50       1.0258      2.00000
     51       1.1661      2.00000
     52       1.3426      2.00000
     53       1.6677      2.00000
     54       2.0520      1.42694
     55       2.2914      0.00000
     56       2.8313      0.00000
     57       3.2444      0.00000
     58       3.3479      0.00000
     59       3.5180      0.00000
     60       4.0147      0.00000
     61       4.7419      0.00000
     62       5.0061      0.00000
     63       5.3032      0.00000
     64       6.1357      0.00000
     65       6.1581      0.00000
     66       6.3793      0.00000
     67       6.7945      0.00000
     68       7.5861      0.00000

 k-point    20 :       0.3846    0.2308    0.0000
  band No.  band energies     occupation 
      1     -17.5330      2.00000
      2     -17.4589      2.00000
      3     -17.4135      2.00000
      4     -17.3773      2.00000
      5     -17.3460      2.00000
      6     -17.3182      2.00000
      7     -17.2944      2.00000
      8     -17.2720      2.00000
      9     -17.2386      2.00000
     10     -17.1929      2.00000
     11      -5.6220      2.00000
     12      -5.4924      2.00000
     13      -5.3531      2.00000
     14      -5.1951      2.00000
     15      -5.1777      2.00000
     16      -5.1102      2.00000
     17      -5.0637      2.00000
     18      -5.0236      2.00000
     19      -4.9714      2.00000
     20      -4.9058      2.00000
     21      -4.2541      2.00000
     22      -4.1319      2.00000
     23      -4.1097      2.00000
     24      -4.0667      2.00000
     25      -3.9915      2.00000
     26      -3.9675      2.00000
     27      -3.9383      2.00000
     28      -3.7783      2.00000
     29      -3.6056      2.00000
     30      -3.4228      2.00000
     31      -3.2724      2.00000
     32      -3.0419      2.00000
     33      -2.9814      2.00000
     34      -2.9332      2.00000
     35      -2.8210      2.00000
     36      -2.7860      2.00000
     37      -2.6653      2.00000
     38      -2.5682      2.00000
     39      -2.4926      2.00000
     40      -2.4441      2.00000
     41      -2.3146      2.00000
     42      -2.3105      2.00000
     43      -1.9440      2.00000
     44      -1.9298      2.00000
     45      -1.3478      2.00000
     46      -1.3124      2.00000
     47      -0.5582      2.00000
     48      -0.5138      2.00000
     49       0.3232      2.00000
     50       0.7215      2.00000
     51       0.9052      2.00000
     52       1.2580      2.00000
     53       1.5139      2.00000
     54       1.7638      2.00000
     55       2.0638      1.18339
     56       2.6335      0.00000
     57       3.2441      0.00000
     58       3.2898      0.00000
     59       3.9796      0.00000
     60       4.0465      0.00000
     61       4.4454      0.00000
     62       4.6311      0.00000
     63       5.1022      0.00000
     64       5.3939      0.00000
     65       6.0284      0.00000
     66       6.2951      0.00000
     67       6.7452      0.00000
     68       7.6993      0.00000

 k-point    21 :       0.3077    0.3077    0.0000
  band No.  band energies     occupation 
      1     -17.5076      2.00000
      2     -17.4349      2.00000
      3     -17.3924      2.00000
      4     -17.3580      2.00000
      5     -17.3274      2.00000
      6     -17.2985      2.00000
      7     -17.2744      2.00000
      8     -17.2543      2.00000
      9     -17.2322      2.00000
     10     -17.1935      2.00000
     11      -5.2728      2.00000
     12      -5.2576      2.00000
     13      -5.1532      2.00000
     14      -5.1315      2.00000
     15      -5.0434      2.00000
     16      -4.9941      2.00000
     17      -4.8952      2.00000
     18      -4.8603      2.00000
     19      -4.7420      2.00000
     20      -4.7261      2.00000
     21      -4.5854      2.00000
     22      -4.5312      2.00000
     23      -4.4024      2.00000
     24      -4.3386      2.00000
     25      -4.2652      2.00000
     26      -4.1980      2.00000
     27      -4.0921      2.00000
     28      -4.0155      2.00000
     29      -3.9051      2.00000
     30      -3.8473      2.00000
     31      -3.2673      2.00000
     32      -3.0304      2.00000
     33      -2.9571      2.00000
     34      -2.8270      2.00000
     35      -2.7676      2.00000
     36      -2.7300      2.00000
     37      -2.6623      2.00000
     38      -2.6386      2.00000
     39      -2.6116      2.00000
     40      -2.5031      2.00000
     41      -2.4373      2.00000
     42      -2.0596      2.00000
     43      -1.4528      2.00000
     44      -0.8201      2.00000
     45      -0.8155      2.00000
     46      -0.6495      2.00000
     47      -0.4586      2.00000
     48      -0.4417      2.00000
     49       0.1224      2.00000
     50       0.1441      2.00000
     51       0.2855      2.00000
     52       0.8421      2.00000
     53       1.0113      2.00000
     54       1.5991      2.00000
     55       1.8789      2.00000
     56       2.4196      0.00000
     57       3.1007      0.00000
     58       3.1979      0.00000
     59       3.5551      0.00000
     60       4.2129      0.00000
     61       4.3149      0.00000
     62       4.5962      0.00000
     63       4.8793      0.00000
     64       5.8176      0.00000
     65       5.9296      0.00000
     66       6.0544      0.00000
     67       6.4769      0.00000
     68       6.8988      0.00000


--------------------------------------------------------------------------------------------------------


 soft charge-density along one line, spin component           1
         0         1         2         3         4         5         6         7         8         9
 total charge-density along one line
 
 pseudopotential strength for first ion, spin component:           1
 12.880  -0.377   0.000  -0.002   0.000  -0.000  -0.000  -0.000
 -0.377   0.090  -0.000   0.000  -0.000   0.000  -0.000   0.000
  0.000  -0.000  -9.238  -0.000   0.000  -0.025   0.000  -0.000
 -0.002   0.000  -0.000  -9.239   0.000   0.000  -0.025  -0.000
  0.000  -0.000   0.000   0.000  -9.238  -0.000  -0.000  -0.025
 -0.000   0.000  -0.025   0.000  -0.000   0.226  -0.000   0.000
 -0.000  -0.000   0.000  -0.025  -0.000  -0.000   0.226   0.000
 -0.000   0.000  -0.000  -0.000  -0.025   0.000   0.000   0.226
 total augmentation occupancy for first ion, spin component:           1
  2.000   0.000   0.000   0.000   0.000   0.000   0.000   0.000
  0.000   0.000   0.000   0.000   0.000   0.000   0.000   0.000
  0.000   0.000   1.333   0.000  -0.000   0.000   0.000   0.000
  0.000   0.000  -0.000   1.333   0.000   0.000   0.000   0.000
  0.000   0.000  -0.000   0.000   1.333   0.000   0.000   0.000
  0.000   0.000   0.000   0.000   0.000   0.000   0.000   0.000
  0.000   0.000   0.000   0.000   0.000   0.000   0.000   0.000
  0.000   0.000   0.000   0.000   0.000   0.000   0.000   0.000


------------------------ aborting loop because EDIFF is reached ----------------------------------------


    CHARGE:  cpu time    0.4592: real time    0.4599
    FORLOC:  cpu time    0.0219: real time    0.0219
    FORNL :  cpu time    2.7206: real time    2.7250
    STRESS:  cpu time    4.2775: real time    4.2862
    FORCOR:  cpu time    0.0878: real time    0.0880
    FORHAR:  cpu time    0.0321: real time    0.0321
    OFIELD:  cpu time    0.0005: real time    0.0005

  FORCE on cell =-STRESS in cart. coord.  units (eV):
  Direction    XX          YY          ZZ          XY          YZ          ZX
  --------------------------------------------------------------------------------------
  Alpha Z    20.50575    20.50575    20.50575
  Ewald  257686.69716257686.69997************    -0.00010     0.00007    -0.00158
  Hartree258870.61292258870.61209************    -0.00000     0.00000     0.00043
  E(xc)    -424.03774  -424.03787  -424.61736     0.00000    -0.00000     0.00000
  Local  ************************517181.57712    -0.00012    -0.00005     0.00059
  n-local   -27.83215   -39.38690   -28.45900     2.72544    -2.01544     6.81452
  augment    61.44667    61.44610    61.02376     0.00018    -0.00000     0.00001
  Kinetic  1543.84862  1505.51045  1523.58734    -0.50068    -0.39162     1.53461
  Fock        0.00000     0.00000     0.00000     0.00000     0.00000     0.00000
  -------------------------------------------------------------------------------------
  Total      -0.19242    -0.19242     0.00701     0.00000     0.00000     0.00000
  in kB      -0.48598    -0.48597     0.01771     0.00000     0.00000     0.00000
  external pressure =       -0.32 kB  Pullay stress =        0.00 kB


 VOLUME and BASIS-vectors are now :
 -----------------------------------------------------------------------------
  energy-cutoff  :      520.00
  volume of cell :      634.38
      direct lattice vectors                 reciprocal lattice vectors
     2.585139981 -1.492527023  0.000000000     0.386826248  0.000000000  0.000000000
     0.000000000  2.985054047  0.000000000     0.193413124  0.335002310  0.000000000
    -0.000000000  0.000000000 82.207404478    -0.000000000  0.000000000  0.012164354

  length of vectors
     2.985060408  2.985054047 82.207404478     0.386826248  0.386827072  0.012164354


 FORCES acting on ions
    electron-ion (+dipol)            ewald-force                    non-local-force                 convergence-correction
 -----------------------------------------------------------------------------------------------
   0.257E-04 -.584E-06 0.241E+04   -.244E-04 0.378E-05 -.241E+04   -.717E-17 0.217E-17 0.907E+00   -.200E-08 -.256E-10 -.269E-01
   0.106E-02 -.183E-02 0.172E+04   0.584E-04 -.103E-03 -.172E+04   0.684E-18 -.867E-18 -.117E+00   0.585E-08 -.410E-08 -.268E-01
   -.131E-07 0.344E-08 0.330E+03   -.205E-05 0.593E-06 -.330E+03   0.681E-18 0.000E+00 -.103E+00   0.667E-08 -.735E-09 -.833E-01
   0.106E-02 -.183E-02 -.363E+03   0.576E-04 -.103E-03 0.363E+03   0.845E-18 0.000E+00 -.115E+00   0.447E-08 0.195E-08 -.868E-01
   0.171E-06 -.865E-08 -.175E+04   -.201E-05 0.560E-06 0.175E+04   0.776E-18 0.000E+00 -.125E+00   0.681E-08 -.767E-09 -.905E-01
   0.106E-02 -.183E-02 -.244E+04   0.579E-04 -.103E-03 0.244E+04   0.126E-17 0.000E+00 -.146E+00   -.465E-10 0.471E-08 -.907E-01
   -.247E-04 0.536E-06 -.382E+04   0.190E-04 -.228E-05 0.382E+04   0.108E-16 -.347E-17 -.177E+01   -.145E-08 0.672E-11 -.227E-01
   -.106E-02 0.183E-02 0.102E+04   -.609E-04 0.103E-03 -.102E+04   0.588E-18 0.542E-19 -.821E-01   0.255E-09 0.307E-08 -.108E+00
   -.106E-02 0.183E-02 -.106E+04   -.606E-04 0.102E-03 0.106E+04   0.592E-18 -.108E-18 -.108E+00   0.646E-08 -.169E-08 -.103E+00
   -.106E-02 0.183E-02 -.313E+04   -.612E-04 0.103E-03 0.314E+04   0.191E-17 0.000E+00 -.191E+00   -.651E-10 0.287E-08 -.394E-01
   -.150E-05 0.545E-07 0.457E+03   0.196E-05 -.555E-06 -.457E+03   0.328E-18 0.000E+00 -.914E-01   -.451E-09 -.793E-10 -.175E-01
   -.155E-05 0.786E-07 -.236E+03   0.204E-05 -.580E-06 0.237E+03   0.333E-18 -.173E-17 -.956E-01   -.871E-09 -.291E-10 -.231E-01
   -.139E-05 0.771E-07 -.930E+03   0.188E-05 -.532E-06 0.930E+03   -.540E-18 0.000E+00 -.911E-01   -.623E-09 0.877E-11 -.173E-01
   0.490E-04 -.867E-04 0.688E+03   -.502E-04 0.882E-04 -.688E+03   0.173E-18 -.347E-17 -.142E+00   0.246E-09 -.799E-10 -.952E-02
   0.481E-04 -.858E-04 -.555E+01   -.489E-04 0.875E-04 0.566E+01   0.113E-18 0.000E+00 -.927E-01   -.626E-09 0.346E-10 -.220E-01
   0.480E-04 -.860E-04 -.698E+03   -.488E-04 0.877E-04 0.699E+03   0.343E-18 0.000E+00 -.104E+00   -.677E-09 0.515E-10 -.225E-01
   0.106E-03 -.479E-04 -.137E+04   -.101E-03 0.267E-04 0.137E+04   0.211E-17 0.000E+00 0.112E+01   -.422E-09 0.132E-09 -.335E-02
   -.112E-03 0.490E-04 0.901E+03   0.110E-03 -.288E-04 -.901E+03   0.314E-17 0.000E+00 0.270E+00   -.545E-09 0.733E-10 0.675E-03
   -.510E-04 0.860E-04 0.225E+03   0.520E-04 -.871E-04 -.225E+03   0.977E-18 0.000E+00 -.904E-01   -.942E-09 0.421E-10 -.229E-01
   -.510E-04 0.858E-04 -.467E+03   0.518E-04 -.869E-04 0.468E+03   -.537E-18 0.173E-17 -.937E-01   -.107E-08 -.157E-10 -.229E-01
   -.517E-04 0.865E-04 -.116E+04   0.530E-04 -.874E-04 0.116E+04   0.231E-19 0.347E-17 -.190E-01   0.637E-09 -.117E-09 -.120E-01
   0.399E-05 0.389E-07 0.143E+04   -.117E-04 0.226E-05 -.143E+04   -.522E-17 -.555E-16 -.141E+01   0.238E-10 -.122E-11 0.311E-01
   -.298E-07 0.273E-07 0.138E+04   0.564E-06 -.124E-06 -.138E+04   0.252E-17 0.000E+00 0.700E-01   -.137E-09 0.251E-11 0.130E-01
   -.344E-05 0.170E-07 0.134E+04   0.692E-05 -.141E-05 -.134E+04   -.134E-16 0.000E+00 -.406E+00   0.108E-09 -.112E-10 0.385E-01
   0.152E-04 -.261E-04 0.140E+04   -.441E-05 0.742E-05 -.140E+04   -.172E-17 -.867E-18 -.158E-01   -.183E-09 0.234E-10 0.996E-02
   0.156E-04 -.266E-04 0.136E+04   -.469E-05 0.726E-05 -.136E+04   0.320E-18 0.243E-16 -.263E+00   0.478E-10 -.116E-10 0.465E-01
   -.151E-04 0.260E-04 0.141E+04   0.351E-05 -.718E-05 -.141E+04   -.513E-19 -.278E-16 0.421E-01   0.580E-10 -.789E-10 0.259E-01
   -.155E-04 0.270E-04 0.137E+04   0.406E-05 -.714E-05 -.137E+04   -.751E-18 0.173E-17 -.959E-01   0.488E-10 0.826E-10 0.310E-01
 -----------------------------------------------------------------------------------------------
   -.173E-04 0.133E-05 0.403E+01   0.377E-13 0.106E-14 0.341E-11   -.827E-18 -.603E-16 -.336E+01   0.216E-07 0.531E-08 -.655E+00
 
 
 POSITION                                       TOTAL-FORCE (eV/Angst)
 -----------------------------------------------------------------------------------
     -0.00000      0.00000     36.20718        -0.000000      0.000000      0.002757
      0.86171      1.49253     38.65162        -0.000000      0.000000      0.001394
     -0.00000      0.00000     43.55338        -0.000000      0.000000      0.011806
      0.86171      1.49253     46.00818         0.000000     -0.000000      0.004354
     -0.00000      0.00000     50.91834         0.000000      0.000000     -0.002255
      0.86171      1.49253     53.37173         0.000000      0.000000     -0.011136
     -0.00000      0.00000     58.26812        -0.000000      0.000000      0.005944
      1.72343     -0.00000     41.10063        -0.000000     -0.000000      0.019875
      1.72343     -0.00000     48.46304        -0.000000     -0.000000      0.006633
      1.72343     -0.00000     55.82162         0.000000      0.000000     -0.000846
     -0.00000      0.00000     39.88113        -0.000000      0.000000      0.007386
     -0.00000      0.00000     47.24090         0.000000      0.000000     -0.005451
     -0.00000      0.00000     54.60153        -0.000000      0.000000     -0.000391
      1.72343     -0.00000     37.43251        -0.000000      0.000000      0.007544
      1.72343     -0.00000     44.78593        -0.000000      0.000000      0.000423
      1.72343     -0.00000     52.15064         0.000000      0.000000     -0.020123
      1.72343     -0.00000     59.55018        -0.000000      0.000000      0.010352
      0.86171      1.49253     34.94440         0.000000      0.000000     -0.004728
      0.86171      1.49253     42.33214        -0.000000      0.000000      0.004520
      0.86171      1.49253     49.69580         0.000000      0.000000     -0.002330
      0.86171      1.49253     57.05175         0.000000      0.000000     -0.002015
     -0.00000      0.00000     19.16710         0.000000      0.000000     -0.004727
     -0.00000      0.00000     25.85701        -0.000000      0.000000      0.001939
     -0.00000      0.00000     32.54314         0.000000      0.000000     -0.013651
      1.72343     -0.00000     23.64184         0.000000      0.000000     -0.001948
      1.72343     -0.00000     30.32861         0.000000      0.000000     -0.015157
      0.86171      1.49253     21.42119         0.000000      0.000000     -0.004136
      0.86171      1.49253     28.09438        -0.000000      0.000000      0.003967
 -----------------------------------------------------------------------------------
    total drift:                               -0.000017      0.000001      0.007168


--------------------------------------------------------------------------------------------------------



  FREE ENERGIE OF THE ION-ELECTRON SYSTEM (eV)
  ---------------------------------------------------
  free  energy   TOTEN  =      -145.52709119 eV

  energy  without entropy=     -145.52215469  energy(sigma->0) =     -145.52462294
 


--------------------------------------------------------------------------------------------------------


    POTLOK:  cpu time    0.2116: real time    0.2120


--------------------------------------------------------------------------------------------------------


 stress matrix after NEB project (eV)
     -0.19242      0.00000      0.00000
      0.00000     -0.19242      0.00000
     -0.00000      0.00000      0.00701
  FORCES: max atom, RMS     0.020123    0.008360
  FORCE total and by dimension    0.044235    0.020123
  Stress total and by dimension    0.272213    0.192420
     LOOP+:  cpu time  106.4385: real time  106.7763
    4ORBIT:  cpu time    0.0000: real time    0.0000

 total amount of memory used by VASP MPI-rank0   119159. kBytes
=======================================================================

   base      :      30000. kBytes
   nonl-proj :      19532. kBytes
   fftplans  :      29125. kBytes
   grid      :      15257. kBytes
   one-center:         21. kBytes
   wavefun   :      25224. kBytes
 
  
  
 General timing and accounting informations for this job:
 ========================================================
  
                  Total CPU time used (sec):      124.065
                            User time (sec):      120.404
                          System time (sec):        3.661
                         Elapsed time (sec):      124.522
  
                   Maximum memory used (kb):      181272.
                   Average memory used (kb):           0.
  
                          Minor page faults:       129113
                          Major page faults:            0
                 Voluntary context switches:          148
