       N       E                     dE             d eps       ncg     rms          rms(c)
DAV:   1     0.456448721030E+03    0.45645E+03   -0.41782E+04  6380   0.127E+03
DAV:   2    -0.962091327785E+02   -0.55266E+03   -0.52111E+03  8075   0.241E+02
DAV:   3    -0.146929517431E+03   -0.50720E+02   -0.50408E+02  7610   0.780E+01
DAV:   4    -0.147554359315E+03   -0.62484E+00   -0.62379E+00  7690   0.949E+00
DAV:   5    -0.147563913388E+03   -0.95541E-02   -0.95491E-02  7680   0.117E+00    0.221E+01
DAV:   6    -0.132243486549E+03    0.15320E+02   -0.81349E+01  7175   0.277E+01    0.733E+00
DAV:   7    -0.132090825094E+03    0.15266E+00   -0.14974E+00  7310   0.464E+00    0.451E+00
DAV:   8    -0.132005557991E+03    0.85267E-01   -0.62041E-01  7550   0.324E+00    0.784E-01
DAV:   9    -0.131964392878E+03    0.41165E-01   -0.20000E-01  7430   0.987E-01    0.373E-01
DAV:  10    -0.131964607222E+03   -0.21434E-03   -0.25107E-02  7505   0.544E-01    0.253E-01
DAV:  11    -0.131964817190E+03   -0.20997E-03   -0.19051E-03  7400   0.176E-01    0.174E-01
DAV:  12    -0.131965039440E+03   -0.22225E-03   -0.11975E-03  8190   0.179E-01    0.542E-02
DAV:  13    -0.131965046443E+03   -0.70036E-05   -0.39019E-04  7440   0.795E-02    0.170E-02
DAV:  14    -0.131965036009E+03    0.10435E-04   -0.80968E-05  7480   0.339E-02    0.112E-02
DAV:  15    -0.131965031462E+03    0.45470E-05   -0.10549E-05  4930   0.169E-02
   1 F= -.13196503E+03 E0= -.13196109E+03  d E =-.131965E+03
       N       E                     dE             d eps       ncg     rms          rms(c)
DAV:   1    -0.133895594545E+03   -0.19306E+01   -0.66349E+01  6925   0.357E+01    0.577E+00
DAV:   2    -0.133418091010E+03    0.47750E+00   -0.75547E-01  7340   0.355E+00    0.331E+00
DAV:   3    -0.133162184329E+03    0.25591E+00   -0.30903E-01  7690   0.261E+00    0.370E-01
DAV:   4    -0.133160961819E+03    0.12225E-02   -0.52502E-02  7570   0.874E-01    0.272E-01
DAV:   5    -0.133159913369E+03    0.10485E-02   -0.35090E-03  7495   0.253E-01    0.163E-01
DAV:   6    -0.133158747722E+03    0.11656E-02   -0.21817E-03  7530   0.204E-01    0.650E-02
DAV:   7    -0.133158108645E+03    0.63908E-03   -0.56290E-04  8130   0.155E-01    0.324E-02
DAV:   8    -0.133157533965E+03    0.57468E-03   -0.47773E-04  7930   0.159E-01    0.248E-02
DAV:   9    -0.133157184168E+03    0.34980E-03   -0.24632E-04  8145   0.139E-01    0.160E-02
DAV:  10    -0.133156756084E+03    0.42808E-03   -0.58516E-04  9600   0.250E-01    0.229E-02
DAV:  11    -0.133156616847E+03    0.13924E-03   -0.36224E-04  7705   0.134E-01    0.154E-02
DAV:  12    -0.133156448992E+03    0.16785E-03   -0.15164E-04  9370   0.194E-01    0.179E-02
DAV:  13    -0.133156376673E+03    0.72320E-04   -0.16317E-04  8645   0.144E-01    0.924E-03
DAV:  14    -0.133156322896E+03    0.53776E-04   -0.12695E-04  9540   0.183E-01    0.115E-02
DAV:  15    -0.133156321477E+03    0.14195E-05   -0.17101E-04  7245   0.102E-01    0.115E-02
DAV:  16    -0.133156324654E+03   -0.31768E-05   -0.71790E-05  6905   0.347E-02
   2 F= -.13315632E+03 E0= -.13315411E+03  d E =-.119129E+01
       N       E                     dE             d eps       ncg     rms          rms(c)
DAV:   1    -0.133644958197E+03   -0.48864E+00   -0.26778E+01  6825   0.226E+01    0.369E+00
DAV:   2    -0.133436647587E+03    0.20831E+00   -0.33785E-01  7300   0.231E+00    0.207E+00
DAV:   3    -0.133339514083E+03    0.97134E-01   -0.10923E-01  7715   0.153E+00    0.321E-01
DAV:   4    -0.133337567097E+03    0.19470E-02   -0.19603E-02  7530   0.546E-01    0.149E-01
DAV:   5    -0.133337229540E+03    0.33756E-03   -0.13105E-03  7555   0.153E-01    0.885E-02
DAV:   6    -0.133336916965E+03    0.31258E-03   -0.42855E-04  7535   0.916E-02    0.390E-02
DAV:   7    -0.133336704519E+03    0.21245E-03   -0.15385E-04  8435   0.783E-02    0.189E-02
DAV:   8    -0.133336551458E+03    0.15306E-03   -0.11184E-04  7455   0.756E-02    0.143E-02
DAV:   9    -0.133336365754E+03    0.18570E-03   -0.15176E-04  9570   0.140E-01    0.101E-02
DAV:  10    -0.133336260846E+03    0.10491E-03   -0.16988E-04  7840   0.124E-01    0.977E-03
DAV:  11    -0.133336192220E+03    0.68626E-04   -0.90962E-05  7990   0.114E-01    0.943E-03
DAV:  12    -0.133336149090E+03    0.43130E-04   -0.64012E-05  7715   0.118E-01    0.695E-03
DAV:  13    -0.133336124084E+03    0.25007E-04   -0.10206E-04  8920   0.140E-01    0.867E-03
DAV:  14    -0.133336127750E+03   -0.36664E-05   -0.10839E-04  7000   0.573E-02    0.952E-03
DAV:  15    -0.133336126736E+03    0.10141E-05   -0.15479E-05  5140   0.162E-02
   3 F= -.13333613E+03 E0= -.13333500E+03  d E =-.137110E+01
       N       E                     dE             d eps       ncg     rms          rms(c)
DAV:   1    -0.133344428059E+03   -0.83003E-02   -0.38278E-01  6845   0.268E+00    0.441E-01
DAV:   2    -0.133341341140E+03    0.30869E-02   -0.48290E-03  7460   0.274E-01    0.245E-01
DAV:   3    -0.133339972814E+03    0.13683E-02   -0.17688E-03  7830   0.184E-01    0.425E-02
DAV:   4    -0.133339933844E+03    0.38970E-04   -0.32092E-04  7400   0.666E-02    0.159E-02
DAV:   5    -0.133339927359E+03    0.64853E-05   -0.28311E-05  6060   0.214E-02    0.835E-03
DAV:   6    -0.133339924518E+03    0.28409E-05   -0.42598E-06  4460   0.953E-03
   4 F= -.13333992E+03 E0= -.13333893E+03  d E =-.137489E+01
       N       E                     dE             d eps       ncg     rms          rms(c)
DAV:   1    -0.133595314548E+03   -0.25539E+00   -0.27698E+00  6650   0.632E+00    0.912E-01
DAV:   2    -0.133577451503E+03    0.17863E-01   -0.17055E-01  7220   0.152E+00    0.425E-01
DAV:   3    -0.133575741178E+03    0.17103E-02   -0.11910E-02  7370   0.465E-01    0.237E-01
DAV:   4    -0.133574911777E+03    0.82940E-03   -0.51696E-03  7575   0.322E-01    0.109E-01
DAV:   5    -0.133574674174E+03    0.23760E-03   -0.78053E-04  8370   0.149E-01    0.602E-02
DAV:   6    -0.133574598500E+03    0.75674E-04   -0.88645E-04  7505   0.129E-01    0.408E-02
DAV:   7    -0.133574552148E+03    0.46352E-04   -0.11184E-04  8740   0.640E-02    0.242E-02
DAV:   8    -0.133574512654E+03    0.39494E-04   -0.15857E-04  8040   0.791E-02    0.147E-02
DAV:   9    -0.133574480202E+03    0.32453E-04   -0.37859E-05  6890   0.449E-02    0.923E-03
DAV:  10    -0.133574463357E+03    0.16845E-04   -0.23756E-05  6340   0.285E-02    0.561E-03
DAV:  11    -0.133574439373E+03    0.23984E-04   -0.18176E-05  5270   0.550E-02    0.913E-03
DAV:  12    -0.133574423494E+03    0.15879E-04   -0.26385E-05  6550   0.615E-02    0.751E-03
DAV:  13    -0.133574415288E+03    0.82056E-05   -0.29443E-05  6450   0.544E-02
   5 F= -.13357442E+03 E0= -.13357269E+03  d E =-.234491E+00
       N       E                     dE             d eps       ncg     rms          rms(c)
DAV:   1    -0.133757646887E+03   -0.18322E+00   -0.86155E+00  6725   0.111E+01    0.162E+00
DAV:   2    -0.133694169336E+03    0.63478E-01   -0.56530E-01  7115   0.269E+00    0.753E-01
DAV:   3    -0.133689030542E+03    0.51388E-02   -0.46456E-02  7350   0.823E-01    0.409E-01
DAV:   4    -0.133686522652E+03    0.25079E-02   -0.15961E-02  7505   0.531E-01    0.199E-01
DAV:   5    -0.133685755013E+03    0.76764E-03   -0.26723E-03  7940   0.237E-01    0.110E-01
DAV:   6    -0.133685506409E+03    0.24860E-03   -0.21349E-03  7425   0.191E-01    0.660E-02
DAV:   7    -0.133685370509E+03    0.13590E-03   -0.29306E-04  8540   0.987E-02    0.380E-02
DAV:   8    -0.133685235309E+03    0.13520E-03   -0.48997E-04  8305   0.146E-01    0.304E-02
DAV:   9    -0.133685167235E+03    0.68073E-04   -0.13559E-04  7710   0.577E-02    0.177E-02
DAV:  10    -0.133685099940E+03    0.67295E-04   -0.97912E-05  7480   0.577E-02    0.136E-02
DAV:  11    -0.133685020483E+03    0.79457E-04   -0.68482E-05  7510   0.102E-01    0.223E-02
DAV:  12    -0.133684968815E+03    0.51668E-04   -0.10709E-04  8395   0.101E-01    0.123E-02
DAV:  13    -0.133684948702E+03    0.20113E-04   -0.11260E-04  7340   0.801E-02    0.106E-02
DAV:  14    -0.133684924857E+03    0.23845E-04   -0.24268E-05  5965   0.852E-02    0.724E-03
DAV:  15    -0.133684915875E+03    0.89825E-05   -0.37814E-05  6815   0.710E-02
   6 F= -.13368492E+03 E0= -.13368355E+03  d E =-.344991E+00
       N       E                     dE             d eps       ncg     rms          rms(c)
DAV:   1    -0.133970344069E+03   -0.28542E+00   -0.22800E+01  6560   0.201E+01    0.341E+00
DAV:   2    -0.133792010437E+03    0.17833E+00   -0.15115E+00  7145   0.466E+00    0.674E-01
DAV:   3    -0.133788251717E+03    0.37587E-02   -0.48110E-02  7420   0.957E-01    0.328E-01
DAV:   4    -0.133786584470E+03    0.16672E-02   -0.14735E-02  7555   0.518E-01    0.188E-01
DAV:   5    -0.133786127911E+03    0.45656E-03   -0.18542E-03  7640   0.215E-01    0.968E-02
DAV:   6    -0.133786034875E+03    0.93036E-04   -0.17224E-03  7500   0.200E-01    0.552E-02
DAV:   7    -0.133785965720E+03    0.69155E-04   -0.31234E-04  8250   0.974E-02    0.296E-02
DAV:   8    -0.133785927966E+03    0.37754E-04   -0.23310E-04  7755   0.102E-01    0.204E-02
DAV:   9    -0.133785905435E+03    0.22530E-04   -0.64668E-05  7500   0.569E-02    0.133E-02
DAV:  10    -0.133785890282E+03    0.15154E-04   -0.25879E-05  6220   0.397E-02    0.583E-03
DAV:  11    -0.133785864758E+03    0.25524E-04   -0.20078E-05  5595   0.735E-02    0.728E-03
DAV:  12    -0.133785856544E+03    0.82139E-05   -0.25376E-05  6190   0.403E-02
   7 F= -.13378586E+03 E0= -.13378429E+03  d E =-.100941E+00
       N       E                     dE             d eps       ncg     rms          rms(c)
DAV:   1    -0.133785872993E+03   -0.82350E-05   -0.18171E-03  6850   0.187E-01    0.295E-02
DAV:   2    -0.133785856646E+03    0.16347E-04   -0.12518E-04  7450   0.447E-02    0.949E-03
DAV:   3    -0.133785853658E+03    0.29881E-05   -0.12841E-05  4160   0.168E-02    0.329E-03
DAV:   4    -0.133785851916E+03    0.17413E-05   -0.18575E-06  3835   0.938E-03    0.230E-03
DAV:   5    -0.133785847738E+03    0.41787E-05   -0.12329E-06  4645   0.179E-02    0.152E-03
DAV:   6    -0.133785844078E+03    0.36597E-05   -0.24364E-06  4270   0.191E-02
   8 F= -.13378584E+03 E0= -.13378428E+03  d E =-.100928E+00
       N       E                     dE             d eps       ncg     rms          rms(c)
DAV:   1    -0.133855216798E+03   -0.69369E-01   -0.77068E+00  6405   0.117E+01    0.781E-01
DAV:   2    -0.133865903807E+03   -0.10687E-01   -0.23783E-01  7510   0.191E+00    0.481E-01
DAV:   3    -0.133861736274E+03    0.41675E-02   -0.73916E-03  7700   0.459E-01    0.300E-01
DAV:   4    -0.133859487351E+03    0.22489E-02   -0.14651E-02  7620   0.581E-01    0.145E-01
DAV:   5    -0.133859129279E+03    0.35807E-03   -0.25181E-03  7620   0.237E-01    0.102E-01
DAV:   6    -0.133858902854E+03    0.22642E-03   -0.17347E-03  7495   0.172E-01    0.303E-02
DAV:   7    -0.133858777410E+03    0.12544E-03   -0.12408E-04  7620   0.648E-02    0.310E-02
DAV:   8    -0.133858606472E+03    0.17094E-03   -0.80155E-05  7055   0.810E-02    0.275E-02
DAV:   9    -0.133858436992E+03    0.16948E-03   -0.16208E-04  8550   0.118E-01    0.155E-02
DAV:  10    -0.133858288528E+03    0.14846E-03   -0.15170E-04  9535   0.146E-01    0.122E-02
DAV:  11    -0.133858136483E+03    0.15205E-03   -0.17564E-04  8990   0.209E-01    0.139E-02
DAV:  12    -0.133858089935E+03    0.46548E-04   -0.18819E-04  7720   0.122E-01    0.109E-02
DAV:  13    -0.133858055665E+03    0.34270E-04   -0.47179E-05  7290   0.965E-02    0.859E-03
DAV:  14    -0.133858035241E+03    0.20425E-04   -0.43121E-05  6910   0.877E-02    0.520E-03
DAV:  15    -0.133858026346E+03    0.88950E-05   -0.43582E-05  7035   0.982E-02
   9 F= -.13385803E+03 E0= -.13385653E+03  d E =-.721823E-01
       N       E                     dE             d eps       ncg     rms          rms(c)
DAV:   1    -0.133866912192E+03   -0.88770E-02   -0.19048E+00  6470   0.582E+00    0.387E-01
DAV:   2    -0.133869537683E+03   -0.26255E-02   -0.58570E-02  7550   0.941E-01    0.239E-01
DAV:   3    -0.133868494974E+03    0.10427E-02   -0.17490E-03  7790   0.227E-01    0.148E-01
DAV:   4    -0.133867935044E+03    0.55993E-03   -0.35043E-03  7650   0.286E-01    0.698E-02
DAV:   5    -0.133867860189E+03    0.74856E-04   -0.59859E-04  7630   0.114E-01    0.517E-02
DAV:   6    -0.133867798514E+03    0.61675E-04   -0.46381E-04  7450   0.898E-02    0.158E-02
DAV:   7    -0.133867768711E+03    0.29803E-04   -0.32232E-05  6210   0.323E-02    0.162E-02
DAV:   8    -0.133867723093E+03    0.45618E-04   -0.21345E-05  5595   0.431E-02    0.132E-02
DAV:   9    -0.133867680025E+03    0.43068E-04   -0.49275E-05  6865   0.604E-02    0.739E-03
DAV:  10    -0.133867643001E+03    0.37025E-04   -0.28771E-05  6345   0.683E-02    0.579E-03
DAV:  11    -0.133867598956E+03    0.44045E-04   -0.54448E-05  7505   0.119E-01    0.727E-03
DAV:  12    -0.133867584671E+03    0.14285E-04   -0.67379E-05  7120   0.822E-02    0.577E-03
DAV:  13    -0.133867580877E+03    0.37937E-05   -0.34840E-05  6370   0.431E-02
  10 F= -.13386758E+03 E0= -.13386632E+03  d E =-.817368E-01
       N       E                     dE             d eps       ncg     rms          rms(c)
DAV:   1    -0.133882190661E+03   -0.14606E-01   -0.20379E+00  6400   0.583E+00    0.348E-01
DAV:   2    -0.133883711732E+03   -0.15211E-02   -0.44905E-02  7770   0.820E-01    0.178E-01
DAV:   3    -0.133882997248E+03    0.71448E-03   -0.15779E-03  7670   0.202E-01    0.963E-02
DAV:   4    -0.133882750643E+03    0.24660E-03   -0.95611E-04  7640   0.136E-01    0.377E-02
DAV:   5    -0.133882694079E+03    0.56564E-04   -0.21382E-04  7450   0.601E-02    0.178E-02
DAV:   6    -0.133882669177E+03    0.24902E-04   -0.67080E-05  7650   0.373E-02    0.110E-02
DAV:   7    -0.133882659231E+03    0.99463E-05   -0.10326E-05  5090   0.188E-02
  11 F= -.13388266E+03 E0= -.13388148E+03  d E =-.150784E-01
       N       E                     dE             d eps       ncg     rms          rms(c)
DAV:   1    -0.133887648134E+03   -0.49790E-02   -0.29673E+00  6380   0.702E+00    0.419E-01
DAV:   2    -0.133889848696E+03   -0.22006E-02   -0.66015E-02  7740   0.991E-01    0.214E-01
DAV:   3    -0.133888791408E+03    0.10573E-02   -0.24139E-03  7620   0.241E-01    0.117E-01
DAV:   4    -0.133888402668E+03    0.38874E-03   -0.13943E-03  7600   0.163E-01    0.473E-02
DAV:   5    -0.133888287751E+03    0.11492E-03   -0.33747E-04  7420   0.778E-02    0.223E-02
DAV:   6    -0.133888224372E+03    0.63379E-04   -0.99823E-05  7850   0.513E-02    0.145E-02
DAV:   7    -0.133888190856E+03    0.33516E-04   -0.21775E-05  6200   0.328E-02    0.106E-02
DAV:   8    -0.133888093813E+03    0.97044E-04   -0.61378E-05  7590   0.899E-02    0.925E-03
DAV:   9    -0.133888040013E+03    0.53799E-04   -0.50208E-05  7000   0.661E-02    0.108E-02
DAV:  10    -0.133887967583E+03    0.72430E-04   -0.57184E-05  7505   0.114E-01    0.805E-03
DAV:  11    -0.133887904199E+03    0.63385E-04   -0.11679E-04  8985   0.170E-01    0.154E-02
DAV:  12    -0.133887891018E+03    0.13181E-04   -0.13230E-04  7200   0.965E-02    0.606E-03
DAV:  13    -0.133887895410E+03   -0.43919E-05   -0.81043E-05  6730   0.417E-02
  12 F= -.13388790E+03 E0= -.13388664E+03  d E =-.203145E-01
       N       E                     dE             d eps       ncg     rms          rms(c)
DAV:   1    -0.133897854764E+03   -0.99637E-02   -0.19698E+00  6400   0.593E+00    0.403E-01
DAV:   2    -0.133899464991E+03   -0.16102E-02   -0.53805E-02  7425   0.894E-01    0.138E-01
DAV:   3    -0.133899110999E+03    0.35399E-03   -0.12359E-03  7505   0.159E-01    0.742E-02
DAV:   4    -0.133899019029E+03    0.91971E-04   -0.75548E-04  7535   0.125E-01    0.337E-02
DAV:   5    -0.133899000231E+03    0.18798E-04   -0.14550E-04  7360   0.451E-02    0.218E-02
DAV:   6    -0.133898993893E+03    0.63376E-05   -0.71924E-05  7230   0.379E-02
  13 F= -.13389899E+03 E0= -.13389777E+03  d E =-.110985E-01
       N       E                     dE             d eps       ncg     rms          rms(c)
DAV:   1    -0.133907331573E+03   -0.83313E-02   -0.96181E+00  6370   0.131E+01    0.912E-01
DAV:   2    -0.133915233384E+03   -0.79018E-02   -0.27298E-01  7425   0.200E+00    0.305E-01
DAV:   3    -0.133913482256E+03    0.17511E-02   -0.59845E-03  7510   0.354E-01    0.168E-01
DAV:   4    -0.133912990667E+03    0.49159E-03   -0.39586E-03  7490   0.295E-01    0.757E-02
DAV:   5    -0.133912877407E+03    0.11326E-03   -0.89654E-04  7370   0.112E-01    0.511E-02
DAV:   6    -0.133912820112E+03    0.57295E-04   -0.31809E-04  7560   0.786E-02    0.254E-02
DAV:   7    -0.133912786835E+03    0.33277E-04   -0.39249E-05  6460   0.412E-02    0.223E-02
DAV:   8    -0.133912742723E+03    0.44112E-04   -0.20000E-05  5750   0.547E-02    0.124E-02
DAV:   9    -0.133912683971E+03    0.58752E-04   -0.78680E-05  8435   0.923E-02    0.971E-03
DAV:  10    -0.133912596934E+03    0.87038E-04   -0.52619E-05  6985   0.136E-01    0.141E-02
DAV:  11    -0.133912535423E+03    0.61511E-04   -0.11481E-04  7645   0.134E-01    0.100E-02
DAV:  12    -0.133912517314E+03    0.18109E-04   -0.89672E-05  7865   0.112E-01    0.485E-03
DAV:  13    -0.133912523873E+03   -0.65585E-05   -0.10084E-04  7000   0.511E-02    0.812E-03
DAV:  14    -0.133912524752E+03   -0.87966E-06   -0.14287E-05  4665   0.134E-02
  14 F= -.13391252E+03 E0= -.13391099E+03  d E =-.246293E-01
       N       E                     dE             d eps       ncg     rms          rms(c)
DAV:   1    -0.133912929230E+03   -0.40536E-03   -0.16387E+00  6385   0.540E+00    0.373E-01
DAV:   2    -0.133914230975E+03   -0.13017E-02   -0.44761E-02  7410   0.816E-01    0.126E-01
DAV:   3    -0.133913946792E+03    0.28418E-03   -0.10900E-03  7545   0.147E-01    0.687E-02
DAV:   4    -0.133913869210E+03    0.77582E-04   -0.66604E-04  7490   0.120E-01    0.316E-02
DAV:   5    -0.133913850136E+03    0.19074E-04   -0.14907E-04  7350   0.457E-02    0.213E-02
DAV:   6    -0.133913841424E+03    0.87123E-05   -0.45571E-05  6880   0.300E-02
  15 F= -.13391384E+03 E0= -.13391202E+03  d E =-.259460E-01
       N       E                     dE             d eps       ncg     rms          rms(c)
DAV:   1    -0.133925024954E+03   -0.11175E-01   -0.27397E+00  6370   0.705E+00    0.438E-01
DAV:   2    -0.133927862694E+03   -0.28377E-02   -0.71788E-02  7540   0.104E+00    0.162E-01
DAV:   3    -0.133927368697E+03    0.49400E-03   -0.17181E-03  7625   0.165E-01    0.839E-02
DAV:   4    -0.133927210764E+03    0.15793E-03   -0.70839E-04  7335   0.110E-01    0.387E-02
DAV:   5    -0.133927165800E+03    0.44964E-04   -0.20450E-04  7530   0.543E-02    0.190E-02
DAV:   6    -0.133927154282E+03    0.11518E-04   -0.51502E-05  7560   0.318E-02    0.110E-02
DAV:   7    -0.133927149543E+03    0.47390E-05   -0.70134E-06  4490   0.142E-02
  16 F= -.13392715E+03 E0= -.13392499E+03  d E =-.133081E-01
       N       E                     dE             d eps       ncg     rms          rms(c)
DAV:   1    -0.133927984518E+03   -0.83024E-03   -0.14533E+01  6370   0.162E+01    0.984E-01
DAV:   2    -0.133944261289E+03   -0.16277E-01   -0.38053E-01  7560   0.239E+00    0.386E-01
DAV:   3    -0.133941535191E+03    0.27261E-02   -0.10510E-02  7580   0.404E-01    0.194E-01
DAV:   4    -0.133940747293E+03    0.78790E-03   -0.37983E-03  7360   0.249E-01    0.935E-02
DAV:   5    -0.133940501212E+03    0.24608E-03   -0.99389E-04  7650   0.129E-01    0.447E-02
DAV:   6    -0.133940465907E+03    0.35305E-04   -0.36214E-04  7620   0.928E-02    0.270E-02
DAV:   7    -0.133940454663E+03    0.11244E-04   -0.70824E-05  7660   0.349E-02    0.213E-02
DAV:   8    -0.133940440631E+03    0.14032E-04   -0.41270E-05  6800   0.359E-02    0.119E-02
DAV:   9    -0.133940424845E+03    0.15785E-04   -0.16791E-05  5355   0.296E-02    0.736E-03
DAV:  10    -0.133940420898E+03    0.39475E-05   -0.13068E-05  4750   0.165E-02
  17 F= -.13394042E+03 E0= -.13393788E+03  d E =-.265795E-01
       N       E                     dE             d eps       ncg     rms          rms(c)
DAV:   1    -0.133948949202E+03   -0.85244E-02   -0.51141E+00  6370   0.964E+00    0.524E-01
DAV:   2    -0.133956762524E+03   -0.78133E-02   -0.13279E-01  7445   0.142E+00    0.208E-01
DAV:   3    -0.133955941970E+03    0.82055E-03   -0.23128E-03  7660   0.214E-01    0.121E-01
DAV:   4    -0.133955654995E+03    0.28698E-03   -0.16267E-03  7550   0.201E-01    0.501E-02
DAV:   5    -0.133955619380E+03    0.35615E-04   -0.56577E-04  7375   0.949E-02    0.353E-02
DAV:   6    -0.133955600788E+03    0.18592E-04   -0.79816E-05  7385   0.382E-02    0.193E-02
DAV:   7    -0.133955587037E+03    0.13751E-04   -0.14289E-05  4940   0.239E-02    0.101E-02
DAV:   8    -0.133955569689E+03    0.17348E-04   -0.38154E-06  4860   0.367E-02    0.674E-03
DAV:   9    -0.133955549934E+03    0.19755E-04   -0.11385E-05  5400   0.498E-02    0.408E-03
DAV:  10    -0.133955515699E+03    0.34234E-04   -0.22776E-05  5955   0.966E-02    0.772E-03
DAV:  11    -0.133955488914E+03    0.26786E-04   -0.68190E-05  8180   0.120E-01    0.102E-02
DAV:  12    -0.133955482935E+03    0.59790E-05   -0.59691E-05  7050   0.814E-02
  18 F= -.13395548E+03 E0= -.13395314E+03  d E =-.150620E-01
       N       E                     dE             d eps       ncg     rms          rms(c)
DAV:   1    -0.133928016470E+03    0.27472E-01   -0.30281E+01  6370   0.235E+01    0.133E+00
DAV:   2    -0.133974914463E+03   -0.46898E-01   -0.84204E-01  7445   0.354E+00    0.513E-01
DAV:   3    -0.133969694165E+03    0.52203E-02   -0.13628E-02  7605   0.532E-01    0.303E-01
DAV:   4    -0.133967857108E+03    0.18371E-02   -0.11106E-02  7580   0.526E-01    0.119E-01
DAV:   5    -0.133967759643E+03    0.97464E-04   -0.37464E-03  7360   0.238E-01    0.934E-02
DAV:   6    -0.133967665594E+03    0.94049E-04   -0.45071E-04  7410   0.942E-02    0.534E-02
DAV:   7    -0.133967641812E+03    0.23782E-04   -0.11368E-04  7635   0.431E-02    0.260E-02
DAV:   8    -0.133967617757E+03    0.24055E-04   -0.34317E-05  6650   0.609E-02    0.157E-02
DAV:   9    -0.133967602766E+03    0.14990E-04   -0.35822E-05  6170   0.449E-02    0.117E-02
DAV:  10    -0.133967593402E+03    0.93646E-05   -0.35852E-05  6515   0.369E-02
  19 F= -.13396759E+03 E0= -.13396570E+03  d E =-.271725E-01
       N       E                     dE             d eps       ncg     rms          rms(c)
DAV:   1    -0.133966663952E+03    0.93881E-03   -0.12943E+00  6370   0.486E+00    0.253E-01
DAV:   2    -0.133968593886E+03   -0.19299E-02   -0.32324E-02  7470   0.703E-01    0.107E-01
DAV:   3    -0.133968366880E+03    0.22701E-03   -0.68569E-04  7620   0.108E-01    0.589E-02
DAV:   4    -0.133968295381E+03    0.71499E-04   -0.36777E-04  7545   0.826E-02    0.260E-02
DAV:   5    -0.133968279946E+03    0.15435E-04   -0.99129E-05  7305   0.380E-02    0.145E-02
DAV:   6    -0.133968275511E+03    0.44345E-05   -0.24742E-05  5810   0.266E-02
  20 F= -.13396828E+03 E0= -.13396639E+03  d E =-.278546E-01
       N       E                     dE             d eps       ncg     rms          rms(c)
DAV:   1    -0.133975859957E+03   -0.75800E-02   -0.33602E+00  6370   0.781E+00    0.333E-01
DAV:   2    -0.133981861581E+03   -0.60016E-02   -0.73303E-02  7475   0.106E+00    0.169E-01
DAV:   3    -0.133981311422E+03    0.55016E-03   -0.88524E-04  7820   0.153E-01    0.104E-01
DAV:   4    -0.133980971215E+03    0.34021E-03   -0.11559E-03  7730   0.179E-01    0.370E-02
DAV:   5    -0.133980935922E+03    0.35293E-04   -0.32379E-04  7570   0.903E-02    0.330E-02
DAV:   6    -0.133980903081E+03    0.32841E-04   -0.12911E-04  7345   0.583E-02    0.183E-02
DAV:   7    -0.133980854464E+03    0.48616E-04   -0.16167E-05  5505   0.479E-02    0.106E-02
DAV:   8    -0.133980789072E+03    0.65393E-04   -0.25536E-05  6030   0.676E-02    0.771E-03
DAV:   9    -0.133980698374E+03    0.90698E-04   -0.53571E-05  7590   0.109E-01    0.682E-03
DAV:  10    -0.133980589022E+03    0.10935E-03   -0.17465E-04  9080   0.201E-01    0.170E-02
DAV:  11    -0.133980556009E+03    0.33013E-04   -0.16033E-04  8160   0.154E-01    0.133E-02
DAV:  12    -0.133980565760E+03   -0.97511E-05   -0.16349E-04  6705   0.517E-02    0.726E-03
DAV:  13    -0.133980566689E+03   -0.92844E-06   -0.11593E-05  4310   0.121E-02
  21 F= -.13398057E+03 E0= -.13397879E+03  d E =-.122912E-01
       N       E                     dE             d eps       ncg     rms          rms(c)
DAV:   1    -0.133978526347E+03    0.20394E-02   -0.77737E+00  6370   0.119E+01    0.513E-01
DAV:   2    -0.133992707419E+03   -0.14181E-01   -0.17385E-01  7465   0.163E+00    0.259E-01
DAV:   3    -0.133991380283E+03    0.13271E-02   -0.21125E-03  7790   0.235E-01    0.160E-01
DAV:   4    -0.133990503757E+03    0.87653E-03   -0.27668E-03  7730   0.272E-01    0.601E-02
DAV:   5    -0.133990382700E+03    0.12106E-03   -0.74935E-04  7510   0.142E-01    0.510E-02
DAV:   6    -0.133990245518E+03    0.13718E-03   -0.42923E-04  7855   0.121E-01    0.277E-02
DAV:   7    -0.133990109481E+03    0.13604E-03   -0.65734E-05  7615   0.769E-02    0.197E-02
DAV:   8    -0.133989819789E+03    0.28969E-03   -0.10370E-04  8575   0.152E-01    0.137E-02
DAV:   9    -0.133989544290E+03    0.27550E-03   -0.18218E-04  7890   0.175E-01    0.162E-02
DAV:  10    -0.133989163568E+03    0.38072E-03   -0.55568E-04  9540   0.382E-01    0.284E-02
DAV:  11    -0.133989069147E+03    0.94421E-04   -0.67443E-04  9180   0.299E-01    0.133E-02
DAV:  12    -0.133989122883E+03   -0.53736E-04   -0.61936E-04  7040   0.820E-02    0.188E-02
DAV:  13    -0.133989123539E+03   -0.65533E-06   -0.88310E-06  4560   0.112E-02
  22 F= -.13398912E+03 E0= -.13398758E+03  d E =-.208480E-01
       N       E                     dE             d eps       ncg     rms          rms(c)
DAV:   1    -0.133994111917E+03   -0.49890E-02   -0.11100E+00  6440   0.444E+00    0.166E-01
DAV:   2    -0.133996332231E+03   -0.22203E-02   -0.24702E-02  7320   0.606E-01    0.875E-02
DAV:   3    -0.133996175238E+03    0.15699E-03   -0.20309E-04  7800   0.761E-02    0.552E-02
DAV:   4    -0.133996078522E+03    0.96716E-04   -0.29215E-04  7670   0.907E-02    0.134E-02
DAV:   5    -0.133996082528E+03   -0.40065E-05   -0.10249E-04  7225   0.436E-02    0.134E-02
DAV:   6    -0.133996077061E+03    0.54675E-05   -0.17954E-05  4880   0.233E-02
  23 F= -.13399608E+03 E0= -.13399462E+03  d E =-.695352E-02
       N       E                     dE             d eps       ncg     rms          rms(c)
DAV:   1    -0.133995379860E+03    0.70267E-03   -0.99825E+00  6370   0.133E+01    0.493E-01
DAV:   2    -0.134015979459E+03   -0.20600E-01   -0.22662E-01  7330   0.182E+00    0.265E-01
DAV:   3    -0.134014579246E+03    0.14002E-02   -0.16531E-03  7770   0.219E-01    0.169E-01
DAV:   4    -0.134013706752E+03    0.87249E-03   -0.31420E-03  7700   0.317E-01    0.432E-02
DAV:   5    -0.134013750112E+03   -0.43360E-04   -0.10790E-03  7510   0.133E-01    0.447E-02
DAV:   6    -0.134013694073E+03    0.56039E-04   -0.15745E-04  7580   0.515E-02    0.196E-02
DAV:   7    -0.134013642963E+03    0.51110E-04   -0.17695E-05  5300   0.448E-02    0.133E-02
DAV:   8    -0.134013582280E+03    0.60683E-04   -0.18251E-05  5620   0.634E-02    0.928E-03
DAV:   9    -0.134013513432E+03    0.68848E-04   -0.36241E-05  7015   0.807E-02    0.928E-03
DAV:  10    -0.134013356997E+03    0.15644E-03   -0.18580E-04 10165   0.235E-01    0.141E-02
DAV:  11    -0.134013302316E+03    0.54680E-04   -0.21447E-04  7740   0.165E-01    0.100E-02
DAV:  12    -0.134013306038E+03   -0.37220E-05   -0.15751E-04  7410   0.713E-02    0.898E-03
DAV:  13    -0.134013308634E+03   -0.25955E-05   -0.44940E-05  6305   0.244E-02
  24 F= -.13401331E+03 E0= -.13401206E+03  d E =-.241851E-01
       N       E                     dE             d eps       ncg     rms          rms(c)
DAV:   1    -0.133954390914E+03    0.58915E-01   -0.39891E+01  6370   0.267E+01    0.993E-01
DAV:   2    -0.134039997910E+03   -0.85607E-01   -0.94146E-01  7340   0.371E+00    0.562E-01
DAV:   3    -0.134033970512E+03    0.60274E-02   -0.82325E-03  7780   0.470E-01    0.354E-01
DAV:   4    -0.134030532488E+03    0.34380E-02   -0.13388E-02  7680   0.636E-01    0.101E-01
DAV:   5    -0.134030638163E+03   -0.10567E-03   -0.39931E-03  7500   0.262E-01    0.842E-02
DAV:   6    -0.134030467116E+03    0.17105E-03   -0.69598E-04  7545   0.101E-01    0.374E-02
DAV:   7    -0.134030349770E+03    0.11735E-03   -0.49256E-05  6720   0.713E-02    0.234E-02
DAV:   8    -0.134030176916E+03    0.17285E-03   -0.85533E-05  8720   0.121E-01    0.131E-02
DAV:   9    -0.134030007886E+03    0.16903E-03   -0.72544E-05  8110   0.123E-01    0.166E-02
DAV:  10    -0.134029720386E+03    0.28750E-03   -0.16008E-04  8710   0.201E-01    0.202E-02
DAV:  11    -0.134029394909E+03    0.32548E-03   -0.54880E-04  8955   0.397E-01    0.332E-02
DAV:  12    -0.134029331209E+03    0.63700E-04   -0.73753E-04  9450   0.316E-01    0.155E-02
DAV:  13    -0.134029391120E+03   -0.59910E-04   -0.69591E-04  7185   0.922E-02    0.264E-02
DAV:  14    -0.134029392010E+03   -0.89070E-06   -0.20705E-05  5835   0.166E-02
  25 F= -.13402939E+03 E0= -.13402833E+03  d E =-.402685E-01
       N       E                     dE             d eps       ncg     rms          rms(c)
DAV:   1    -0.134036023168E+03   -0.66320E-02   -0.34317E+00  6400   0.789E+00    0.327E-01
DAV:   2    -0.134042412215E+03   -0.63890E-02   -0.78717E-02  7330   0.110E+00    0.151E-01
DAV:   3    -0.134041989718E+03    0.42250E-03   -0.95928E-04  7815   0.149E-01    0.971E-02
DAV:   4    -0.134041766233E+03    0.22349E-03   -0.99394E-04  7650   0.160E-01    0.359E-02
DAV:   5    -0.134041758667E+03    0.75651E-05   -0.28416E-04  7580   0.793E-02    0.318E-02
DAV:   6    -0.134041745671E+03    0.12996E-04   -0.89226E-05  7150   0.454E-02    0.165E-02
DAV:   7    -0.134041737941E+03    0.77300E-05   -0.17108E-05  5315   0.296E-02
  26 F= -.13404174E+03 E0= -.13404072E+03  d E =-.123459E-01
       N       E                     dE             d eps       ncg     rms          rms(c)
DAV:   1    -0.134004225319E+03    0.37520E-01   -0.30846E+01  6370   0.237E+01    0.104E+00
DAV:   2    -0.134064692411E+03   -0.60467E-01   -0.76306E-01  7380   0.337E+00    0.477E-01
DAV:   3    -0.134060401525E+03    0.42909E-02   -0.86703E-03  7780   0.454E-01    0.306E-01
DAV:   4    -0.134058259592E+03    0.21419E-02   -0.12149E-02  7650   0.541E-01    0.123E-01
DAV:   5    -0.134058196759E+03    0.62833E-04   -0.29935E-03  7550   0.252E-01    0.108E-01
DAV:   6    -0.134058058629E+03    0.13813E-03   -0.10011E-03  7550   0.148E-01    0.509E-02
DAV:   7    -0.134058006209E+03    0.52420E-04   -0.11787E-04  7570   0.699E-02    0.298E-02
DAV:   8    -0.134057920615E+03    0.85594E-04   -0.91451E-05  9300   0.125E-01    0.164E-02
DAV:   9    -0.134057880645E+03    0.39971E-04   -0.67615E-05  7500   0.740E-02    0.157E-02
DAV:  10    -0.134057823778E+03    0.56866E-04   -0.75868E-05  8220   0.113E-01    0.994E-03
DAV:  11    -0.134057789163E+03    0.34615E-04   -0.60824E-05  7680   0.101E-01    0.143E-02
DAV:  12    -0.134057764138E+03    0.25025E-04   -0.50979E-05  7460   0.115E-01    0.978E-03
DAV:  13    -0.134057767250E+03   -0.31123E-05   -0.95679E-05  7120   0.581E-02
  27 F= -.13405777E+03 E0= -.13405653E+03  d E =-.283752E-01
       N       E                     dE             d eps       ncg     rms          rms(c)
DAV:   1    -0.134062425964E+03   -0.46618E-02   -0.50500E+00  6390   0.954E+00    0.336E-01
DAV:   2    -0.134071817923E+03   -0.93920E-02   -0.11121E-01  7425   0.133E+00    0.173E-01
DAV:   3    -0.134071104445E+03    0.71348E-03   -0.17088E-03  7820   0.211E-01    0.110E-01
DAV:   4    -0.134070581718E+03    0.52273E-03   -0.80083E-04  7690   0.189E-01    0.513E-02
DAV:   5    -0.134070377715E+03    0.20400E-03   -0.53980E-04  8030   0.174E-01    0.271E-02
DAV:   6    -0.134070297781E+03    0.79933E-04   -0.28550E-04  7660   0.124E-01    0.214E-02
DAV:   7    -0.134070178608E+03    0.11917E-03   -0.70688E-05  8625   0.132E-01    0.163E-02
DAV:   8    -0.134070083759E+03    0.94849E-04   -0.81229E-05  7840   0.115E-01    0.106E-02
DAV:   9    -0.134070017500E+03    0.66258E-04   -0.65768E-05  8055   0.123E-01    0.101E-02
DAV:  10    -0.134069952032E+03    0.65468E-04   -0.87128E-05  8575   0.186E-01    0.987E-03
DAV:  11    -0.134069944603E+03    0.74287E-05   -0.14085E-04  7630   0.101E-01    0.498E-03
DAV:  12    -0.134069948515E+03   -0.39118E-05   -0.85196E-05  7180   0.600E-02
  28 F= -.13406995E+03 E0= -.13406864E+03  d E =-.121813E-01
       N       E                     dE             d eps       ncg     rms          rms(c)
DAV:   1    -0.134068616641E+03    0.13280E-02   -0.26176E+00  6390   0.686E+00    0.242E-01
DAV:   2    -0.134073524105E+03   -0.49075E-02   -0.57966E-02  7410   0.954E-01    0.124E-01
DAV:   3    -0.134073159721E+03    0.36438E-03   -0.81505E-04  7790   0.146E-01    0.797E-02
DAV:   4    -0.134072881602E+03    0.27812E-03   -0.43690E-04  7760   0.144E-01    0.353E-02
DAV:   5    -0.134072787101E+03    0.94501E-04   -0.32220E-04  7770   0.122E-01    0.206E-02
DAV:   6    -0.134072750289E+03    0.36812E-04   -0.14048E-04  7500   0.744E-02    0.165E-02
DAV:   7    -0.134072686987E+03    0.63302E-04   -0.19233E-05  5440   0.741E-02    0.961E-03
DAV:   8    -0.134072628411E+03    0.58576E-04   -0.40129E-05  7190   0.862E-02    0.846E-03
DAV:   9    -0.134072574990E+03    0.53421E-04   -0.59103E-05  7865   0.117E-01    0.745E-03
DAV:  10    -0.134072547073E+03    0.27917E-04   -0.60884E-05  7490   0.101E-01    0.898E-03
DAV:  11    -0.134072537970E+03    0.91032E-05   -0.62372E-05  7150   0.764E-02
  29 F= -.13407254E+03 E0= -.13407118E+03  d E =-.147707E-01
       N       E                     dE             d eps       ncg     rms          rms(c)
DAV:   1    -0.134077066249E+03   -0.45192E-02   -0.52954E+00  6390   0.975E+00    0.370E-01
DAV:   2    -0.134087200158E+03   -0.10134E-01   -0.12211E-01  7220   0.137E+00    0.185E-01
DAV:   3    -0.134086486739E+03    0.71342E-03   -0.15844E-03  7755   0.195E-01    0.120E-01
DAV:   4    -0.134085993187E+03    0.49355E-03   -0.11766E-03  7665   0.202E-01    0.466E-02
DAV:   5    -0.134085928459E+03    0.64728E-04   -0.56732E-04  7640   0.133E-01    0.349E-02
DAV:   6    -0.134085879042E+03    0.49418E-04   -0.22134E-04  7650   0.984E-02    0.200E-02
DAV:   7    -0.134085840662E+03    0.38380E-04   -0.48153E-05  6930   0.658E-02    0.163E-02
DAV:   8    -0.134085786406E+03    0.54255E-04   -0.25258E-05  6105   0.862E-02    0.128E-02
DAV:   9    -0.134085754134E+03    0.32272E-04   -0.44540E-05  6990   0.655E-02    0.766E-03
DAV:  10    -0.134085715956E+03    0.38178E-04   -0.23423E-05  5700   0.102E-01    0.481E-03
DAV:  11    -0.134085690090E+03    0.25866E-04   -0.95555E-05  9250   0.156E-01    0.551E-03
DAV:  12    -0.134085698743E+03   -0.86535E-05   -0.11010E-04  7095   0.421E-02    0.565E-03
DAV:  13    -0.134085699544E+03   -0.80075E-06   -0.10324E-05  3890   0.118E-02
  30 F= -.13408570E+03 E0= -.13408441E+03  d E =-.131616E-01
       N       E                     dE             d eps       ncg     rms          rms(c)
DAV:   1    -0.134081500877E+03    0.41979E-02   -0.58198E+00  6395   0.102E+01    0.390E-01
DAV:   2    -0.134092692197E+03   -0.11191E-01   -0.13453E-01  7235   0.143E+00    0.194E-01
DAV:   3    -0.134091925597E+03    0.76660E-03   -0.17224E-03  7780   0.203E-01    0.126E-01
DAV:   4    -0.134091389830E+03    0.53577E-03   -0.12880E-03  7680   0.210E-01    0.484E-02
DAV:   5    -0.134091326225E+03    0.63604E-04   -0.60498E-04  7650   0.140E-01    0.372E-02
DAV:   6    -0.134091277276E+03    0.48949E-04   -0.23907E-04  7520   0.996E-02    0.213E-02
DAV:   7    -0.134091234733E+03    0.42543E-04   -0.46735E-05  6890   0.686E-02    0.158E-02
DAV:   8    -0.134091174584E+03    0.60149E-04   -0.33841E-05  6675   0.947E-02    0.143E-02
DAV:   9    -0.134091140501E+03    0.34082E-04   -0.45913E-05  7010   0.635E-02    0.880E-03
DAV:  10    -0.134091088228E+03    0.52273E-04   -0.39422E-05  6420   0.124E-01    0.589E-03
DAV:  11    -0.134091063640E+03    0.24588E-04   -0.10251E-04  9000   0.139E-01    0.908E-03
DAV:  12    -0.134091067788E+03   -0.41481E-05   -0.10059E-04  7170   0.586E-02    0.469E-03
DAV:  13    -0.134091070271E+03   -0.24821E-05   -0.31947E-05  5765   0.203E-02
  31 F= -.13409107E+03 E0= -.13408984E+03  d E =-.185323E-01
       N       E                     dE             d eps       ncg     rms          rms(c)
DAV:   1    -0.134092018652E+03   -0.95086E-03   -0.64800E+00  6370   0.108E+01    0.434E-01
DAV:   2    -0.134103930682E+03   -0.11912E-01   -0.15296E-01  7545   0.155E+00    0.206E-01
DAV:   3    -0.134102921445E+03    0.10092E-02   -0.23864E-03  7760   0.262E-01    0.136E-01
DAV:   4    -0.134102160848E+03    0.76060E-03   -0.16163E-03  7680   0.271E-01    0.562E-02
DAV:   5    -0.134102007463E+03    0.15338E-03   -0.97844E-04  7820   0.198E-01    0.438E-02
DAV:   6    -0.134101948773E+03    0.58690E-04   -0.47485E-04  7630   0.110E-01    0.273E-02
DAV:   7    -0.134101879171E+03    0.69601E-04   -0.75578E-05  7630   0.673E-02    0.212E-02
DAV:   8    -0.134101774757E+03    0.10441E-03   -0.46647E-05  7520   0.119E-01    0.211E-02
DAV:   9    -0.134101709806E+03    0.64952E-04   -0.60807E-05  8190   0.101E-01    0.165E-02
DAV:  10    -0.134101620939E+03    0.88867E-04   -0.12708E-04  9790   0.198E-01    0.951E-03
DAV:  11    -0.134101601649E+03    0.19290E-04   -0.16237E-04  7730   0.128E-01    0.149E-02
DAV:  12    -0.134101600221E+03    0.14279E-05   -0.10041E-04  7345   0.716E-02    0.111E-02
DAV:  13    -0.134101601820E+03   -0.15995E-05   -0.44530E-05  6420   0.244E-02
  32 F= -.13410160E+03 E0= -.13410049E+03  d E =-.105315E-01
       N       E                     dE             d eps       ncg     rms          rms(c)
DAV:   1    -0.134101151866E+03    0.44836E-03   -0.83758E-01  6390   0.388E+00    0.153E-01
DAV:   2    -0.134102690174E+03   -0.15383E-02   -0.19421E-02  7540   0.555E-01    0.740E-02
DAV:   3    -0.134102565263E+03    0.12491E-03   -0.30659E-04  7770   0.932E-02    0.486E-02
DAV:   4    -0.134102473801E+03    0.91462E-04   -0.19344E-04  7625   0.944E-02    0.209E-02
DAV:   5    -0.134102452352E+03    0.21449E-04   -0.11614E-04  7710   0.703E-02    0.152E-02
DAV:   6    -0.134102443688E+03    0.86642E-05   -0.60095E-05  7170   0.407E-02
  33 F= -.13410244E+03 E0= -.13410137E+03  d E =-.113734E-01
       N       E                     dE             d eps       ncg     rms          rms(c)
DAV:   1    -0.134104387951E+03   -0.19356E-02   -0.50311E+00  6370   0.944E+00    0.399E-01
DAV:   2    -0.134112787959E+03   -0.84000E-02   -0.11092E-01  7400   0.131E+00    0.181E-01
DAV:   3    -0.134112147587E+03    0.64037E-03   -0.16674E-03  7800   0.191E-01    0.107E-01
DAV:   4    -0.134111853620E+03    0.29397E-03   -0.93005E-04  7600   0.145E-01    0.431E-02
DAV:   5    -0.134111825849E+03    0.27771E-04   -0.28428E-04  7730   0.841E-02    0.261E-02
DAV:   6    -0.134111820228E+03    0.56207E-05   -0.15339E-04  7510   0.693E-02    0.173E-02
DAV:   7    -0.134111816821E+03    0.34070E-05   -0.32080E-05  5960   0.285E-02
  34 F= -.13411182E+03 E0= -.13411076E+03  d E =-.937313E-02
       N       E                     dE             d eps       ncg     rms          rms(c)
DAV:   1    -0.134110127782E+03    0.16924E-02   -0.25421E+00  6370   0.671E+00    0.284E-01
DAV:   2    -0.134114335032E+03   -0.42072E-02   -0.55957E-02  7440   0.928E-01    0.127E-01
DAV:   3    -0.134114004935E+03    0.33010E-03   -0.85354E-04  7790   0.142E-01    0.755E-02
DAV:   4    -0.134113828540E+03    0.17640E-03   -0.42010E-04  7660   0.109E-01    0.308E-02
DAV:   5    -0.134113796591E+03    0.31948E-04   -0.16700E-04  7520   0.784E-02    0.184E-02
DAV:   6    -0.134113782849E+03    0.13742E-04   -0.86557E-05  7230   0.625E-02    0.129E-02
DAV:   7    -0.134113772450E+03    0.10399E-04   -0.22360E-05  5795   0.372E-02    0.103E-02
DAV:   8    -0.134113761274E+03    0.11177E-04   -0.60080E-06  4645   0.297E-02    0.518E-03
DAV:   9    -0.134113743704E+03    0.17570E-04   -0.11689E-05  5270   0.606E-02    0.508E-03
DAV:  10    -0.134113737605E+03    0.60983E-05   -0.18982E-05  6075   0.402E-02
  35 F= -.13411374E+03 E0= -.13411269E+03  d E =-.112939E-01
       N       E                     dE             d eps       ncg     rms          rms(c)
DAV:   1    -0.134115192229E+03   -0.14485E-02   -0.32483E+00  6370   0.755E+00    0.439E-01
DAV:   2    -0.134118997113E+03   -0.38049E-02   -0.82929E-02  7660   0.113E+00    0.154E-01
DAV:   3    -0.134118474432E+03    0.52268E-03   -0.17055E-03  7750   0.201E-01    0.873E-02
DAV:   4    -0.134118197875E+03    0.27656E-03   -0.67234E-04  7710   0.133E-01    0.362E-02
DAV:   5    -0.134118145532E+03    0.52343E-04   -0.21741E-04  7910   0.994E-02    0.200E-02
DAV:   6    -0.134118133142E+03    0.12389E-04   -0.14968E-04  7510   0.731E-02    0.163E-02
DAV:   7    -0.134118125998E+03    0.71447E-05   -0.36182E-05  6460   0.281E-02
  36 F= -.13411813E+03 E0= -.13411701E+03  d E =-.438839E-02
       N       E                     dE             d eps       ncg     rms          rms(c)
DAV:   1    -0.134118115172E+03    0.17970E-04   -0.24892E-03  6935   0.210E-01    0.131E-02
DAV:   2    -0.134118114269E+03    0.90300E-06   -0.65291E-05  7380   0.376E-02    0.455E-03
DAV:   3    -0.134118111361E+03    0.29083E-05   -0.63278E-06  4190   0.167E-02    0.368E-03
DAV:   4    -0.134118109004E+03    0.23571E-05   -0.15164E-06  4205   0.103E-02    0.273E-03
DAV:   5    -0.134118101522E+03    0.74813E-05   -0.78491E-06  5140   0.380E-02    0.316E-03
DAV:   6    -0.134118100977E+03    0.54537E-06   -0.59384E-06  4015   0.116E-02
  37 F= -.13411810E+03 E0= -.13411698E+03  d E =-.436337E-02
       N       E                     dE             d eps       ncg     rms          rms(c)
DAV:   1    -0.134117654273E+03    0.44725E-03   -0.25467E+00  6400   0.664E+00    0.224E-01
DAV:   2    -0.134122408199E+03   -0.47539E-02   -0.55069E-02  7405   0.928E-01    0.119E-01
DAV:   3    -0.134122120242E+03    0.28796E-03   -0.62413E-04  7800   0.129E-01    0.801E-02
DAV:   4    -0.134121891695E+03    0.22855E-03   -0.60138E-04  7660   0.147E-01    0.286E-02
DAV:   5    -0.134121885426E+03    0.62693E-05   -0.29492E-04  7640   0.899E-02    0.264E-02
DAV:   6    -0.134121878381E+03    0.70443E-05   -0.85215E-05  6840   0.401E-02
  38 F= -.13412188E+03 E0= -.13412071E+03  d E =-.377740E-02
       N       E                     dE             d eps       ncg     rms          rms(c)
DAV:   1    -0.134119138702E+03    0.27467E-02   -0.17169E+00  6400   0.545E+00    0.188E-01
DAV:   2    -0.134122314302E+03   -0.31756E-02   -0.37333E-02  7440   0.767E-01    0.973E-02
DAV:   3    -0.134122111918E+03    0.20238E-03   -0.51584E-04  7810   0.121E-01    0.661E-02
DAV:   4    -0.134121938690E+03    0.17323E-03   -0.32582E-04  7590   0.119E-01    0.271E-02
DAV:   5    -0.134121899389E+03    0.39301E-04   -0.19178E-04  7870   0.995E-02    0.210E-02
DAV:   6    -0.134121885705E+03    0.13684E-04   -0.14814E-04  7220   0.691E-02    0.137E-02
DAV:   7    -0.134121865914E+03    0.19791E-04   -0.18338E-05  5495   0.460E-02    0.852E-03
DAV:   8    -0.134121848982E+03    0.16933E-04   -0.90021E-06  5120   0.446E-02    0.549E-03
DAV:   9    -0.134121831486E+03    0.17495E-04   -0.12684E-05  5430   0.633E-02    0.367E-03
DAV:  10    -0.134121819043E+03    0.12443E-04   -0.30173E-05  6510   0.749E-02    0.599E-03
DAV:  11    -0.134121816608E+03    0.24353E-05   -0.29142E-05  6390   0.466E-02
  39 F= -.13412182E+03 E0= -.13412063E+03  d E =-.371563E-02
       N       E                     dE             d eps       ncg     rms          rms(c)
DAV:   1    -0.134121570102E+03    0.24894E-03   -0.36567E-01  6420   0.252E+00    0.862E-02
DAV:   2    -0.134122252099E+03   -0.68200E-03   -0.79101E-03  7420   0.351E-01    0.448E-02
DAV:   3    -0.134122209829E+03    0.42269E-04   -0.91114E-05  7780   0.505E-02    0.298E-02
DAV:   4    -0.134122177530E+03    0.32300E-04   -0.81796E-05  7310   0.551E-02    0.105E-02
DAV:   5    -0.134122176737E+03    0.79242E-06   -0.43040E-05  6900   0.337E-02    0.984E-03
DAV:   6    -0.134122175755E+03    0.98230E-06   -0.95540E-06  3870   0.137E-02
  40 F= -.13412218E+03 E0= -.13412100E+03  d E =-.407478E-02
       N       E                     dE             d eps       ncg     rms          rms(c)
DAV:   1    -0.134120675950E+03    0.15008E-02   -0.34353E+00  6370   0.763E+00    0.368E-01
DAV:   2    -0.134125621327E+03   -0.49454E-02   -0.75757E-02  7535   0.106E+00    0.146E-01
DAV:   3    -0.134125094359E+03    0.52697E-03   -0.14150E-03  7715   0.187E-01    0.796E-02
DAV:   4    -0.134124811420E+03    0.28294E-03   -0.44901E-04  7650   0.143E-01    0.339E-02
DAV:   5    -0.134124724668E+03    0.86752E-04   -0.23879E-04  8010   0.126E-01    0.196E-02
DAV:   6    -0.134124671278E+03    0.53390E-04   -0.17765E-04  9060   0.123E-01    0.163E-02
DAV:   7    -0.134124647144E+03    0.24134E-04   -0.97972E-05  7310   0.699E-02    0.177E-02
DAV:   8    -0.134124619655E+03    0.27490E-04   -0.26617E-05  6410   0.462E-02    0.709E-03
DAV:   9    -0.134124571217E+03    0.48437E-04   -0.74885E-05  8120   0.132E-01    0.175E-02
DAV:  10    -0.134124565982E+03    0.52356E-05   -0.48629E-05  7050   0.368E-02
  41 F= -.13412457E+03 E0= -.13412339E+03  d E =-.239023E-02
       N       E                     dE             d eps       ncg     rms          rms(c)
DAV:   1    -0.134124547731E+03    0.23487E-04   -0.89917E-03  6760   0.396E-01    0.222E-02
DAV:   2    -0.134124569092E+03   -0.21361E-04   -0.30119E-04  7470   0.677E-02    0.140E-02
DAV:   3    -0.134124565402E+03    0.36897E-05   -0.11676E-05  3975   0.169E-02    0.703E-03
DAV:   4    -0.134124564260E+03    0.11419E-05   -0.75505E-06  3990   0.111E-02    0.250E-03
DAV:   5    -0.134124563836E+03    0.42407E-06   -0.10375E-06  3975   0.775E-03    0.192E-03
DAV:   6    -0.134124563204E+03    0.63184E-06   -0.78721E-07  3980   0.123E-02
  42 F= -.13412456E+03 E0= -.13412339E+03  d E =-.238745E-02
       N       E                     dE             d eps       ncg     rms          rms(c)
DAV:   1    -0.134122726269E+03    0.18376E-02   -0.30829E+00  6380   0.724E+00    0.242E-01
DAV:   2    -0.134128449996E+03   -0.57237E-02   -0.64042E-02  7170   0.979E-01    0.120E-01
DAV:   3    -0.134128153830E+03    0.29617E-03   -0.62648E-04  7780   0.118E-01    0.782E-02
DAV:   4    -0.134127937572E+03    0.21626E-03   -0.61844E-04  7670   0.131E-01    0.247E-02
DAV:   5    -0.134127944630E+03   -0.70587E-05   -0.25280E-04  7430   0.734E-02    0.244E-02
DAV:   6    -0.134127937680E+03    0.69510E-05   -0.57384E-05  6895   0.358E-02
  43 F= -.13412794E+03 E0= -.13412676E+03  d E =-.337448E-02
       N       E                     dE             d eps       ncg     rms          rms(c)
DAV:   1    -0.134122925367E+03    0.50193E-02   -0.34098E+00  6380   0.762E+00    0.259E-01
DAV:   2    -0.134129263493E+03   -0.63381E-02   -0.71303E-02  7220   0.104E+00    0.125E-01
DAV:   3    -0.134128928968E+03    0.33452E-03   -0.74478E-04  7780   0.133E-01    0.820E-02
DAV:   4    -0.134128660365E+03    0.26860E-03   -0.62211E-04  7670   0.146E-01    0.271E-02
DAV:   5    -0.134128655747E+03    0.46175E-05   -0.32002E-04  7480   0.924E-02    0.271E-02
DAV:   6    -0.134128642576E+03    0.13171E-04   -0.10590E-04  7145   0.516E-02    0.164E-02
DAV:   7    -0.134128628690E+03    0.13887E-04   -0.86331E-06  4805   0.288E-02    0.104E-02
DAV:   8    -0.134128599620E+03    0.29070E-04   -0.18592E-05  5765   0.754E-02    0.747E-03
DAV:   9    -0.134128593786E+03    0.58342E-05   -0.25628E-05  6245   0.341E-02
  44 F= -.13412859E+03 E0= -.13412742E+03  d E =-.403058E-02
       N       E                     dE             d eps       ncg     rms          rms(c)
DAV:   1    -0.134125069148E+03    0.35305E-02   -0.29422E+00  6380   0.717E+00    0.233E-01
DAV:   2    -0.134130773794E+03   -0.57046E-02   -0.63749E-02  7515   0.999E-01    0.124E-01
DAV:   3    -0.134130429266E+03    0.34453E-03   -0.80721E-04  7830   0.140E-01    0.840E-02
DAV:   4    -0.134130172626E+03    0.25664E-03   -0.54913E-04  7645   0.121E-01    0.322E-02
DAV:   5    -0.134130140352E+03    0.32274E-04   -0.24418E-04  7730   0.907E-02    0.229E-02
DAV:   6    -0.134130134976E+03    0.53759E-05   -0.17471E-04  7430   0.682E-02    0.159E-02
DAV:   7    -0.134130130844E+03    0.41320E-05   -0.25388E-05  5870   0.240E-02
  45 F= -.13413013E+03 E0= -.13412898E+03  d E =-.153706E-02
       N       E                     dE             d eps       ncg     rms          rms(c)
DAV:   1    -0.134130119930E+03    0.15045E-04   -0.13329E-03  6865   0.155E-01    0.747E-03
DAV:   2    -0.134130121043E+03   -0.11122E-05   -0.39392E-05  6905   0.270E-02    0.415E-03
DAV:   3    -0.134130119636E+03    0.14062E-05   -0.15024E-06  3825   0.825E-03    0.301E-03
DAV:   4    -0.134130116864E+03    0.27721E-05   -0.23793E-06  4790   0.160E-02    0.191E-03
DAV:   5    -0.134130115979E+03    0.88528E-06   -0.22129E-06  3820   0.104E-02    0.214E-03
DAV:   6    -0.134130115048E+03    0.93143E-06   -0.10304E-06  4350   0.114E-02
  46 F= -.13413012E+03 E0= -.13412896E+03  d E =-.152126E-02
       N       E                     dE             d eps       ncg     rms          rms(c)
DAV:   1    -0.134130866529E+03   -0.75055E-03   -0.35593E-01  6370   0.253E+00    0.108E-01
DAV:   2    -0.134131494275E+03   -0.62775E-03   -0.80719E-03  7495   0.356E-01    0.533E-02
DAV:   3    -0.134131425093E+03    0.69182E-04   -0.12145E-04  7770   0.632E-02    0.318E-02
DAV:   4    -0.134131375270E+03    0.49823E-04   -0.60133E-05  7450   0.628E-02    0.109E-02
DAV:   5    -0.134131361409E+03    0.13862E-04   -0.45559E-05  7410   0.544E-02    0.680E-03
DAV:   6    -0.134131357468E+03    0.39413E-05   -0.28697E-05  6235   0.321E-02
  47 F= -.13413136E+03 E0= -.13413025E+03  d E =-.124242E-02
       N       E                     dE             d eps       ncg     rms          rms(c)
DAV:   1    -0.134130588645E+03    0.77276E-03   -0.10400E+00  6370   0.432E+00    0.183E-01
DAV:   2    -0.134132410346E+03   -0.18217E-02   -0.23549E-02  7505   0.611E-01    0.911E-02
DAV:   3    -0.134132194898E+03    0.21545E-03   -0.39746E-04  7800   0.119E-01    0.543E-02
DAV:   4    -0.134132030064E+03    0.16483E-03   -0.16795E-04  7880   0.113E-01    0.206E-02
DAV:   5    -0.134131962014E+03    0.68051E-04   -0.13969E-04  8150   0.109E-01    0.119E-02
DAV:   6    -0.134131947902E+03    0.14112E-04   -0.11832E-04  7310   0.609E-02    0.138E-02
DAV:   7    -0.134131917289E+03    0.30613E-04   -0.66473E-06  5105   0.447E-02    0.834E-03
DAV:   8    -0.134131846313E+03    0.70976E-04   -0.91886E-05  8275   0.146E-01    0.146E-02
DAV:   9    -0.134131829951E+03    0.16362E-04   -0.54182E-05  7280   0.709E-02    0.859E-03
DAV:  10    -0.134131815809E+03    0.14142E-04   -0.18586E-05  5410   0.881E-02    0.621E-03
DAV:  11    -0.134131819927E+03   -0.41179E-05   -0.70518E-05  7145   0.364E-02
  48 F= -.13413182E+03 E0= -.13413079E+03  d E =-.170488E-02
       N       E                     dE             d eps       ncg     rms          rms(c)
DAV:   1    -0.134132202402E+03   -0.38659E-03   -0.52962E-02  6510   0.973E-01    0.344E-02
DAV:   2    -0.134132302868E+03   -0.10047E-03   -0.11519E-03  7270   0.133E-01    0.186E-02
DAV:   3    -0.134132296344E+03    0.65235E-05   -0.12615E-05  4795   0.175E-02    0.120E-02
DAV:   4    -0.134132291659E+03    0.46849E-05   -0.99605E-06  3940   0.179E-02    0.332E-03
DAV:   5    -0.134132291515E+03    0.14411E-06   -0.54628E-06  3820   0.117E-02    0.291E-03
DAV:   6    -0.134132291294E+03    0.22129E-06   -0.13991E-06  3730   0.679E-03
  49 F= -.13413229E+03 E0= -.13413127E+03  d E =-.471367E-03
       N       E                     dE             d eps       ncg     rms          rms(c)
DAV:   1    -0.134132574722E+03   -0.28321E-03   -0.47673E-01  6370   0.292E+00    0.104E-01
DAV:   2    -0.134133509612E+03   -0.93489E-03   -0.10401E-02  7290   0.397E-01    0.534E-02
DAV:   3    -0.134133454549E+03    0.55062E-04   -0.99678E-05  7745   0.489E-02    0.339E-02
DAV:   4    -0.134133416986E+03    0.37564E-04   -0.90529E-05  7440   0.548E-02    0.985E-03
DAV:   5    -0.134133417271E+03   -0.28535E-06   -0.42552E-05  6500   0.314E-02    0.926E-03
DAV:   6    -0.134133415425E+03    0.18459E-05   -0.80393E-06  3870   0.158E-02
  50 F= -.13413342E+03 E0= -.13413241E+03  d E =-.159550E-02
       N       E                     dE             d eps       ncg     rms          rms(c)
DAV:   1    -0.134130951927E+03    0.24653E-02   -0.19063E+00  6370   0.584E+00    0.208E-01
DAV:   2    -0.134134697298E+03   -0.37454E-02   -0.41668E-02  7290   0.796E-01    0.108E-01
DAV:   3    -0.134134472716E+03    0.22458E-03   -0.41606E-04  7770   0.101E-01    0.680E-02
DAV:   4    -0.134134314380E+03    0.15834E-03   -0.34529E-04  7700   0.110E-01    0.205E-02
DAV:   5    -0.134134310827E+03    0.35539E-05   -0.17381E-04  7560   0.670E-02    0.185E-02
DAV:   6    -0.134134300333E+03    0.10493E-04   -0.42242E-05  6945   0.392E-02    0.106E-02
DAV:   7    -0.134134289242E+03    0.11091E-04   -0.44319E-06  4840   0.308E-02    0.620E-03
DAV:   8    -0.134134272814E+03    0.16428E-04   -0.82599E-06  5280   0.531E-02    0.540E-03
DAV:   9    -0.134134266372E+03    0.64422E-05   -0.14197E-05  5600   0.332E-02
  51 F= -.13413427E+03 E0= -.13413329E+03  d E =-.244644E-02
       N       E                     dE             d eps       ncg     rms          rms(c)
DAV:   1    -0.134135278869E+03   -0.10061E-02   -0.79348E-02  6530   0.120E+00    0.832E-02
DAV:   2    -0.134135332288E+03   -0.53419E-04   -0.22343E-03  7670   0.194E-01    0.390E-02
DAV:   3    -0.134135291207E+03    0.41081E-04   -0.81421E-05  7560   0.494E-02    0.214E-02
DAV:   4    -0.134135263337E+03    0.27870E-04   -0.27071E-05  6320   0.448E-02    0.766E-03
DAV:   5    -0.134135251743E+03    0.11594E-04   -0.16856E-05  5390   0.438E-02    0.434E-03
DAV:   6    -0.134135247633E+03    0.41108E-05   -0.20141E-05  5180   0.319E-02
  52 F= -.13413525E+03 E0= -.13413426E+03  d E =-.981261E-03
       N       E                     dE             d eps       ncg     rms          rms(c)
DAV:   1    -0.134136012119E+03   -0.76038E-03   -0.25741E-01  6410   0.216E+00    0.149E-01
DAV:   2    -0.134136151765E+03   -0.13965E-03   -0.67676E-03  7650   0.335E-01    0.668E-02
DAV:   3    -0.134136019694E+03    0.13207E-03   -0.24402E-04  7870   0.997E-02    0.362E-02
DAV:   4    -0.134135932100E+03    0.87594E-04   -0.97642E-05  7990   0.933E-02    0.132E-02
DAV:   5    -0.134135896052E+03    0.36048E-04   -0.68217E-05  7680   0.790E-02    0.801E-03
DAV:   6    -0.134135883798E+03    0.12255E-04   -0.55303E-05  7180   0.490E-02    0.941E-03
DAV:   7    -0.134135863370E+03    0.20428E-04   -0.51805E-06  5025   0.430E-02    0.556E-03
DAV:   8    -0.134135823044E+03    0.40326E-04   -0.55359E-05  7490   0.122E-01    0.102E-02
DAV:   9    -0.134135819882E+03    0.31618E-05   -0.40249E-05  6710   0.339E-02
  53 F= -.13413582E+03 E0= -.13413482E+03  d E =-.155351E-02
       N       E                     dE             d eps       ncg     rms          rms(c)
DAV:   1    -0.134136438965E+03   -0.61592E-03   -0.93537E-02  6510   0.129E+00    0.657E-02
DAV:   2    -0.134136598817E+03   -0.15985E-03   -0.23074E-03  7590   0.189E-01    0.393E-02
DAV:   3    -0.134136569347E+03    0.29470E-04   -0.38310E-05  7060   0.370E-02    0.241E-02
DAV:   4    -0.134136552894E+03    0.16452E-04   -0.63937E-05  7210   0.472E-02    0.890E-03
DAV:   5    -0.134136552816E+03    0.78220E-07   -0.22534E-05  4915   0.216E-02    0.862E-03
DAV:   6    -0.134136551966E+03    0.85054E-06   -0.39717E-06  3805   0.843E-03
  54 F= -.13413655E+03 E0= -.13413555E+03  d E =-.732083E-03
       N       E                     dE             d eps       ncg     rms          rms(c)
DAV:   1    -0.134136654994E+03   -0.10218E-03   -0.36986E-01  6400   0.256E+00    0.131E-01
DAV:   2    -0.134137255836E+03   -0.60084E-03   -0.88549E-03  7600   0.374E-01    0.742E-02
DAV:   3    -0.134137143494E+03    0.11234E-03   -0.14740E-04  7760   0.718E-02    0.453E-02
DAV:   4    -0.134137066669E+03    0.76825E-04   -0.17480E-04  7590   0.932E-02    0.140E-02
DAV:   5    -0.134137065071E+03    0.15977E-05   -0.93918E-05  7075   0.470E-02    0.150E-02
DAV:   6    -0.134137061236E+03    0.38353E-05   -0.17051E-05  4065   0.184E-02
  55 F= -.13413706E+03 E0= -.13413603E+03  d E =-.124135E-02
       N       E                     dE             d eps       ncg     rms          rms(c)
DAV:   1    -0.134137634930E+03   -0.56986E-03   -0.11254E-01  6410   0.142E+00    0.925E-02
DAV:   2    -0.134137729231E+03   -0.94301E-04   -0.28311E-03  7680   0.215E-01    0.400E-02
DAV:   3    -0.134137682873E+03    0.46358E-04   -0.88276E-05  7690   0.599E-02    0.214E-02
DAV:   4    -0.134137648013E+03    0.34860E-04   -0.26211E-05  6010   0.575E-02    0.823E-03
DAV:   5    -0.134137630063E+03    0.17950E-04   -0.22933E-05  5730   0.542E-02    0.546E-03
DAV:   6    -0.134137619355E+03    0.10708E-04   -0.24601E-05  5600   0.461E-02    0.531E-03
DAV:   7    -0.134137602806E+03    0.16548E-04   -0.10550E-05  5100   0.590E-02    0.599E-03
DAV:   8    -0.134137589158E+03    0.13648E-04   -0.16501E-05  5590   0.547E-02    0.407E-03
DAV:   9    -0.134137581768E+03    0.73899E-05   -0.12233E-05  5390   0.502E-02
  56 F= -.13413758E+03 E0= -.13413661E+03  d E =-.520533E-03
       N       E                     dE             d eps       ncg     rms          rms(c)
DAV:   1    -0.134137717137E+03   -0.12798E-03   -0.88050E-02  6530   0.126E+00    0.810E-02
DAV:   2    -0.134137802818E+03   -0.85682E-04   -0.22683E-03  7670   0.189E-01    0.363E-02
DAV:   3    -0.134137771740E+03    0.31078E-04   -0.55716E-05  7500   0.364E-02    0.195E-02
DAV:   4    -0.134137752891E+03    0.18850E-04   -0.21627E-05  5420   0.354E-02    0.658E-03
DAV:   5    -0.134137746691E+03    0.61993E-05   -0.13872E-05  4765   0.286E-02    0.429E-03
DAV:   6    -0.134137742854E+03    0.38377E-05   -0.86793E-06  3955   0.215E-02
  57 F= -.13413774E+03 E0= -.13413681E+03  d E =-.681618E-03
       N       E                     dE             d eps       ncg     rms          rms(c)
DAV:   1    -0.134138282136E+03   -0.53544E-03   -0.77472E-02  6415   0.118E+00    0.710E-02
DAV:   2    -0.134138382680E+03   -0.10054E-03   -0.18267E-03  7660   0.169E-01    0.378E-02
DAV:   3    -0.134138352672E+03    0.30008E-04   -0.39702E-05  7365   0.384E-02    0.211E-02
DAV:   4    -0.134138334907E+03    0.17765E-04   -0.31464E-05  6700   0.425E-02    0.603E-03
DAV:   5    -0.134138333979E+03    0.92776E-06   -0.21351E-05  4560   0.232E-02    0.638E-03
DAV:   6    -0.134138332843E+03    0.11360E-05   -0.40757E-06  3850   0.978E-03
  58 F= -.13413833E+03 E0= -.13413742E+03  d E =-.589989E-03
       N       E                     dE             d eps       ncg     rms          rms(c)
DAV:   1    -0.134138516078E+03   -0.18210E-03   -0.17627E-01  6390   0.178E+00    0.107E-01
DAV:   2    -0.134138730237E+03   -0.21416E-03   -0.41858E-03  7690   0.261E-01    0.570E-02
DAV:   3    -0.134138651605E+03    0.78632E-04   -0.11445E-04  7860   0.716E-02    0.324E-02
DAV:   4    -0.134138589833E+03    0.61772E-04   -0.66442E-05  7660   0.832E-02    0.944E-03
DAV:   5    -0.134138580572E+03    0.92610E-05   -0.65748E-05  7300   0.490E-02    0.104E-02
DAV:   6    -0.134138567787E+03    0.12785E-04   -0.20740E-05  5555   0.406E-02    0.593E-03
DAV:   7    -0.134138547557E+03    0.20230E-04   -0.16638E-05  5315   0.738E-02    0.114E-02
DAV:   8    -0.134138531853E+03    0.15704E-04   -0.23614E-05  6340   0.693E-02    0.119E-02
DAV:   9    -0.134138521237E+03    0.10615E-04   -0.26463E-05  6360   0.669E-02    0.498E-03
DAV:  10    -0.134138520837E+03    0.40083E-06   -0.31733E-05  6540   0.464E-02
  59 F= -.13413852E+03 E0= -.13413763E+03  d E =-.777983E-03
       N       E                     dE             d eps       ncg     rms          rms(c)
DAV:   1    -0.134138547114E+03   -0.25876E-04   -0.10620E-02  6550   0.437E-01    0.272E-02
DAV:   2    -0.134138559683E+03   -0.12569E-04   -0.24973E-04  7630   0.634E-02    0.142E-02
DAV:   3    -0.134138555246E+03    0.44361E-05   -0.86144E-06  4070   0.184E-02    0.748E-03
DAV:   4    -0.134138553021E+03    0.22256E-05   -0.37596E-06  4270   0.151E-02    0.213E-03
DAV:   5    -0.134138552630E+03    0.39047E-06   -0.26113E-06  3805   0.993E-03    0.200E-03
DAV:   6    -0.134138552116E+03    0.51451E-06   -0.65250E-07  3835   0.779E-03
  60 F= -.13413855E+03 E0= -.13413765E+03  d E =-.809262E-03
       N       E                     dE             d eps       ncg     rms          rms(c)
DAV:   1    -0.134138998175E+03   -0.44554E-03   -0.91144E-02  6375   0.128E+00    0.756E-02
DAV:   2    -0.134139095197E+03   -0.97023E-04   -0.21787E-03  7670   0.186E-01    0.314E-02
DAV:   3    -0.134139072400E+03    0.22798E-04   -0.55955E-05  7615   0.383E-02    0.176E-02
DAV:   4    -0.134139057484E+03    0.14915E-04   -0.18001E-05  5160   0.312E-02    0.627E-03
DAV:   5    -0.134139051992E+03    0.54929E-05   -0.10140E-05  4815   0.263E-02    0.421E-03
DAV:   6    -0.134139049398E+03    0.25931E-05   -0.81582E-06  3825   0.179E-02
  61 F= -.13413905E+03 E0= -.13413815E+03  d E =-.497283E-03
       N       E                     dE             d eps       ncg     rms          rms(c)
DAV:   1    -0.134139140172E+03   -0.88180E-04   -0.10792E-01  6390   0.139E+00    0.815E-02
DAV:   2    -0.134139251357E+03   -0.11119E-03   -0.26101E-03  7690   0.205E-01    0.343E-02
DAV:   3    -0.134139216654E+03    0.34703E-04   -0.67610E-05  7725   0.452E-02    0.195E-02
DAV:   4    -0.134139185431E+03    0.31223E-04   -0.20513E-05  5800   0.445E-02    0.726E-03
DAV:   5    -0.134139167692E+03    0.17738E-04   -0.16718E-05  5280   0.417E-02    0.535E-03
DAV:   6    -0.134139156321E+03    0.11372E-04   -0.13928E-05  4835   0.325E-02    0.496E-03
DAV:   7    -0.134139133971E+03    0.22350E-04   -0.69268E-06  5135   0.525E-02    0.437E-03
DAV:   8    -0.134139105805E+03    0.28165E-04   -0.21988E-05  6180   0.748E-02    0.446E-03
DAV:   9    -0.134139085326E+03    0.20479E-04   -0.27959E-05  6520   0.857E-02    0.564E-03
DAV:  10    -0.134139076100E+03    0.92256E-05   -0.49678E-05  7450   0.888E-02
  62 F= -.13413908E+03 E0= -.13413817E+03  d E =-.523985E-03
       N       E                     dE             d eps       ncg     rms          rms(c)
DAV:   1    -0.134139111011E+03   -0.25685E-04   -0.11724E-02  6735   0.460E-01    0.279E-02
DAV:   2    -0.134139121530E+03   -0.10519E-04   -0.27854E-04  7690   0.688E-02    0.125E-02
DAV:   3    -0.134139118134E+03    0.33955E-05   -0.17173E-05  4615   0.225E-02    0.636E-03
DAV:   4    -0.134139116607E+03    0.15268E-05   -0.39210E-06  3810   0.105E-02    0.339E-03
DAV:   5    -0.134139115064E+03    0.15430E-05   -0.14703E-06  4560   0.124E-02    0.134E-03
DAV:   6    -0.134139114819E+03    0.24518E-06   -0.14357E-06  3710   0.656E-03
  63 F= -.13413911E+03 E0= -.13413821E+03  d E =-.562704E-03
       N       E                     dE             d eps       ncg     rms          rms(c)
DAV:   1    -0.134139395061E+03   -0.28000E-03   -0.12141E-01  6390   0.148E+00    0.629E-02
DAV:   2    -0.134139610866E+03   -0.21580E-03   -0.27088E-03  7500   0.205E-01    0.324E-02
DAV:   3    -0.134139586838E+03    0.24028E-04   -0.29038E-05  6420   0.318E-02    0.199E-02
DAV:   4    -0.134139568738E+03    0.18100E-04   -0.34338E-05  6700   0.456E-02    0.480E-03
DAV:   5    -0.134139568466E+03    0.27132E-06   -0.26368E-05  5380   0.238E-02    0.657E-03
DAV:   6    -0.134139567871E+03    0.59572E-06   -0.28949E-06  3820   0.698E-03
  64 F= -.13413957E+03 E0= -.13413866E+03  d E =-.453051E-03
       N       E                     dE             d eps       ncg     rms          rms(c)
DAV:   1    -0.134139244493E+03    0.32397E-03   -0.44093E-01  6370   0.282E+00    0.121E-01
DAV:   2    -0.134140026295E+03   -0.78180E-03   -0.98794E-03  7520   0.392E-01    0.613E-02
DAV:   3    -0.134139935919E+03    0.90376E-04   -0.11987E-04  7810   0.665E-02    0.376E-02
DAV:   4    -0.134139862670E+03    0.73249E-04   -0.11294E-04  7560   0.898E-02    0.103E-02
DAV:   5    -0.134139854884E+03    0.77858E-05   -0.97731E-05  7360   0.522E-02    0.125E-02
DAV:   6    -0.134139851596E+03    0.32876E-05   -0.16946E-05  4440   0.175E-02
  65 F= -.13413985E+03 E0= -.13413892E+03  d E =-.736777E-03
       N       E                     dE             d eps       ncg     rms          rms(c)
DAV:   1    -0.134140124292E+03   -0.26941E-03   -0.18278E-01  6390   0.180E+00    0.846E-02
DAV:   2    -0.134140393784E+03   -0.26949E-03   -0.42698E-03  7670   0.260E-01    0.374E-02
DAV:   3    -0.134140342225E+03    0.51559E-04   -0.80933E-05  7750   0.539E-02    0.232E-02
DAV:   4    -0.134140290608E+03    0.51617E-04   -0.54688E-05  7180   0.615E-02    0.941E-03
DAV:   5    -0.134140265610E+03    0.24998E-04   -0.36265E-05  6990   0.442E-02    0.772E-03
DAV:   6    -0.134140235616E+03    0.29994E-04   -0.13080E-05  5110   0.463E-02    0.595E-03
DAV:   7    -0.134140187218E+03    0.48398E-04   -0.19962E-05  5740   0.804E-02    0.103E-02
DAV:   8    -0.134140131719E+03    0.55499E-04   -0.47928E-05  7530   0.112E-01    0.706E-03
DAV:   9    -0.134140086583E+03    0.45135E-04   -0.12587E-04  9465   0.180E-01    0.104E-02
DAV:  10    -0.134140087560E+03   -0.97639E-06   -0.12854E-04  7240   0.797E-02    0.646E-03
DAV:  11    -0.134140091722E+03   -0.41626E-05   -0.51303E-05  6185   0.271E-02
  66 F= -.13414009E+03 E0= -.13413916E+03  d E =-.240126E-03
       N       E                     dE             d eps       ncg     rms          rms(c)
DAV:   1    -0.134140097029E+03   -0.94692E-05   -0.45336E-03  6700   0.284E-01    0.146E-02
DAV:   2    -0.134140102569E+03   -0.55399E-05   -0.11009E-04  7350   0.425E-02    0.719E-03
DAV:   3    -0.134140101576E+03    0.99284E-06   -0.42377E-06  3815   0.947E-03    0.437E-03
DAV:   4    -0.134140100808E+03    0.76763E-06   -0.12540E-06  3785   0.880E-03    0.187E-03
DAV:   5    -0.134140100414E+03    0.39461E-06   -0.11653E-06  3790   0.734E-03    0.137E-03
DAV:   6    -0.134140100167E+03    0.24726E-06   -0.50796E-07  3725   0.433E-03
  67 F= -.13414010E+03 E0= -.13413917E+03  d E =-.248570E-03
       N       E                     dE             d eps       ncg     rms          rms(c)
DAV:   1    -0.134140472207E+03   -0.37179E-03   -0.10356E-01  6400   0.135E+00    0.645E-02
DAV:   2    -0.134140636743E+03   -0.16454E-03   -0.23543E-03  7710   0.193E-01    0.365E-02
DAV:   3    -0.134140604577E+03    0.32166E-04   -0.48543E-05  7480   0.408E-02    0.225E-02
DAV:   4    -0.134140578142E+03    0.26435E-04   -0.35599E-05  6870   0.478E-02    0.683E-03
DAV:   5    -0.134140574179E+03    0.39628E-05   -0.22189E-05  5135   0.296E-02    0.646E-03
DAV:   6    -0.134140571812E+03    0.23670E-05   -0.10570E-05  3830   0.175E-02
  68 F= -.13414057E+03 E0= -.13413965E+03  d E =-.471645E-03
       N       E                     dE             d eps       ncg     rms          rms(c)
DAV:   1    -0.134140582400E+03   -0.82214E-05   -0.66738E-02  6430   0.109E+00    0.518E-02
DAV:   2    -0.134140681554E+03   -0.99154E-04   -0.15548E-03  7710   0.162E-01    0.297E-02
DAV:   3    -0.134140654348E+03    0.27206E-04   -0.44099E-05  7175   0.407E-02    0.187E-02
DAV:   4    -0.134140622060E+03    0.32287E-04   -0.20266E-05  6090   0.483E-02    0.672E-03
DAV:   5    -0.134140610581E+03    0.11480E-04   -0.16657E-05  5065   0.359E-02    0.608E-03
DAV:   6    -0.134140598757E+03    0.11823E-04   -0.14262E-05  5325   0.410E-02    0.464E-03
DAV:   7    -0.134140579417E+03    0.19340E-04   -0.70516E-06  4965   0.635E-02    0.605E-03
DAV:   8    -0.134140561051E+03    0.18367E-04   -0.22882E-05  6230   0.706E-02    0.547E-03
DAV:   9    -0.134140543909E+03    0.17141E-04   -0.29673E-05  6475   0.102E-01    0.314E-03
DAV:  10    -0.134140545507E+03   -0.15976E-05   -0.55008E-05  6990   0.405E-02
  69 F= -.13414055E+03 E0= -.13413964E+03  d E =-.445340E-03
       N       E                     dE             d eps       ncg     rms          rms(c)
DAV:   1    -0.134140579156E+03   -0.35247E-04   -0.10937E-02  6630   0.441E-01    0.220E-02
DAV:   2    -0.134140593416E+03   -0.14260E-04   -0.24512E-04  7700   0.653E-02    0.124E-02
DAV:   3    -0.134140589195E+03    0.42206E-05   -0.10383E-05  4440   0.199E-02    0.728E-03
DAV:   4    -0.134140585906E+03    0.32890E-05   -0.27113E-06  4370   0.154E-02    0.285E-03
DAV:   5    -0.134140584262E+03    0.16440E-05   -0.20363E-06  4175   0.159E-02    0.164E-03
DAV:   6    -0.134140582808E+03    0.14541E-05   -0.23450E-06  4465   0.224E-02
  70 F= -.13414058E+03 E0= -.13413968E+03  d E =-.482642E-03
       N       E                     dE             d eps       ncg     rms          rms(c)
DAV:   1    -0.134140863692E+03   -0.27943E-03   -0.71525E-02  6370   0.113E+00    0.616E-02
DAV:   2    -0.134140954294E+03   -0.90602E-04   -0.17594E-03  7610   0.167E-01    0.262E-02
DAV:   3    -0.134140935651E+03    0.18643E-04   -0.40763E-05  7420   0.339E-02    0.154E-02
DAV:   4    -0.134140920667E+03    0.14984E-04   -0.17868E-05  5460   0.349E-02    0.555E-03
DAV:   5    -0.134140916088E+03    0.45791E-05   -0.12149E-05  4625   0.253E-02    0.470E-03
DAV:   6    -0.134140910919E+03    0.51689E-05   -0.69355E-06  4695   0.267E-02
  71 F= -.13414091E+03 E0= -.13414001E+03  d E =-.328111E-03
       N       E                     dE             d eps       ncg     rms          rms(c)
DAV:   1    -0.134140930849E+03   -0.14761E-04   -0.52478E-02  6470   0.970E-01    0.502E-02
DAV:   2    -0.134140997615E+03   -0.66765E-04   -0.12991E-03  7615   0.145E-01    0.230E-02
DAV:   3    -0.134140978478E+03    0.19137E-04   -0.28623E-05  6710   0.308E-02    0.137E-02
DAV:   4    -0.134140956405E+03    0.22072E-04   -0.14748E-05  5230   0.410E-02    0.502E-03
DAV:   5    -0.134140947794E+03    0.86117E-05   -0.14345E-05  4975   0.304E-02    0.475E-03
DAV:   6    -0.134140934915E+03    0.12878E-04   -0.74030E-06  5030   0.421E-02    0.361E-03
DAV:   7    -0.134140920053E+03    0.14863E-04   -0.99442E-06  5300   0.555E-02    0.505E-03
DAV:   8    -0.134140907939E+03    0.12114E-04   -0.13266E-05  5500   0.571E-02    0.316E-03
DAV:   9    -0.134140897190E+03    0.10748E-04   -0.17232E-05  5500   0.788E-02    0.352E-03
DAV:  10    -0.134140898445E+03   -0.12548E-05   -0.37699E-05  6515   0.316E-02
  72 F= -.13414090E+03 E0= -.13414001E+03  d E =-.315637E-03
       N       E                     dE             d eps       ncg     rms          rms(c)
DAV:   1    -0.134140920149E+03   -0.22958E-04   -0.70345E-03  6640   0.355E-01    0.205E-02
DAV:   2    -0.134140927883E+03   -0.77347E-05   -0.17853E-04  7550   0.551E-02    0.846E-03
DAV:   3    -0.134140925855E+03    0.20279E-05   -0.60780E-06  4005   0.140E-02    0.504E-03
DAV:   4    -0.134140924010E+03    0.18456E-05   -0.19092E-06  4330   0.124E-02    0.194E-03
DAV:   5    -0.134140923287E+03    0.72250E-06   -0.14037E-06  3955   0.104E-02    0.158E-03
DAV:   6    -0.134140922696E+03    0.59093E-06   -0.11476E-06  4010   0.117E-02
  73 F= -.13414092E+03 E0= -.13414003E+03  d E =-.339888E-03
       N       E                     dE             d eps       ncg     rms          rms(c)
DAV:   1    -0.134141145082E+03   -0.22179E-03   -0.87230E-02  6390   0.125E+00    0.458E-02
DAV:   2    -0.134141309841E+03   -0.16476E-03   -0.19924E-03  7685   0.180E-01    0.255E-02
DAV:   3    -0.134141294075E+03    0.15767E-04   -0.37311E-05  7210   0.319E-02    0.181E-02
DAV:   4    -0.134141278945E+03    0.15130E-04   -0.27933E-05  6270   0.330E-02    0.764E-03
DAV:   5    -0.134141273225E+03    0.57194E-05   -0.13070E-05  4745   0.286E-02    0.629E-03
DAV:   6    -0.134141270750E+03    0.24754E-05   -0.99494E-06  3875   0.189E-02
  74 F= -.13414127E+03 E0= -.13414038E+03  d E =-.348054E-03
       N       E                     dE             d eps       ncg     rms          rms(c)
DAV:   1    -0.134141196775E+03    0.76450E-04   -0.12606E-01  6370   0.151E+00    0.546E-02
DAV:   2    -0.134141432292E+03   -0.23552E-03   -0.28998E-03  7685   0.217E-01    0.315E-02
DAV:   3    -0.134141403105E+03    0.29187E-04   -0.52208E-05  7480   0.414E-02    0.222E-02
DAV:   4    -0.134141366898E+03    0.36207E-04   -0.46110E-05  6960   0.504E-02    0.948E-03
DAV:   5    -0.134141352648E+03    0.14250E-04   -0.27590E-05  6255   0.405E-02    0.859E-03
DAV:   6    -0.134141345156E+03    0.74920E-05   -0.18097E-05  4850   0.268E-02
  75 F= -.13414135E+03 E0= -.13414045E+03  d E =-.422460E-03
       N       E                     dE             d eps       ncg     rms          rms(c)
DAV:   1    -0.134141600612E+03   -0.24796E-03   -0.81052E-02  6420   0.121E+00    0.640E-02
DAV:   2    -0.134141700110E+03   -0.99499E-04   -0.20031E-03  7590   0.182E-01    0.283E-02
DAV:   3    -0.134141670055E+03    0.30055E-04   -0.59331E-05  7660   0.398E-02    0.169E-02
DAV:   4    -0.134141639695E+03    0.30360E-04   -0.12704E-05  5080   0.393E-02    0.765E-03
DAV:   5    -0.134141611661E+03    0.28034E-04   -0.18070E-05  5870   0.483E-02    0.567E-03
DAV:   6    -0.134141585658E+03    0.26003E-04   -0.16588E-05  5660   0.524E-02    0.494E-03
DAV:   7    -0.134141541379E+03    0.44279E-04   -0.22654E-05  6035   0.989E-02    0.630E-03
DAV:   8    -0.134141510336E+03    0.31043E-04   -0.56945E-05  7550   0.102E-01    0.424E-03
DAV:   9    -0.134141497733E+03    0.12603E-04   -0.43781E-05  7050   0.915E-02    0.375E-03
DAV:  10    -0.134141501364E+03   -0.36307E-05   -0.63205E-05  6860   0.412E-02
  76 F= -.13414150E+03 E0= -.13414059E+03  d E =-.156207E-03
       N       E                     dE             d eps       ncg     rms          rms(c)
DAV:   1    -0.134141517741E+03   -0.20008E-04   -0.79363E-03  6675   0.378E-01    0.208E-02
DAV:   2    -0.134141527915E+03   -0.10174E-04   -0.19482E-04  7560   0.554E-02    0.871E-03
DAV:   3    -0.134141526031E+03    0.18833E-05   -0.54568E-06  3815   0.108E-02    0.516E-03
DAV:   4    -0.134141524607E+03    0.14243E-05   -0.18001E-06  3930   0.108E-02    0.197E-03
DAV:   5    -0.134141523926E+03    0.68081E-06   -0.18901E-06  3855   0.900E-03    0.154E-03
DAV:   6    -0.134141523703E+03    0.22292E-06   -0.76205E-07  3750   0.387E-03
  77 F= -.13414152E+03 E0= -.13414060E+03  d E =-.178547E-03
       N       E                     dE             d eps       ncg     rms          rms(c)
DAV:   1    -0.134141891961E+03   -0.36803E-03   -0.69450E-02  6410   0.112E+00    0.492E-02
DAV:   2    -0.134142000989E+03   -0.10903E-03   -0.16725E-03  7720   0.168E-01    0.247E-02
DAV:   3    -0.134141984343E+03    0.16646E-04   -0.52388E-05  7640   0.383E-02    0.172E-02
DAV:   4    -0.134141970403E+03    0.13940E-04   -0.24700E-05  6185   0.304E-02    0.777E-03
DAV:   5    -0.134141963529E+03    0.68736E-05   -0.10121E-05  4855   0.292E-02    0.528E-03
DAV:   6    -0.134141960353E+03    0.31762E-05   -0.98824E-06  4285   0.234E-02
  78 F= -.13414196E+03 E0= -.13414103E+03  d E =-.436650E-03
       N       E                     dE             d eps       ncg     rms          rms(c)
DAV:   1    -0.134142006518E+03   -0.42989E-04   -0.66509E-02  6390   0.109E+00    0.476E-02
DAV:   2    -0.134142104666E+03   -0.98148E-04   -0.16117E-03  7710   0.167E-01    0.251E-02
DAV:   3    -0.134142081373E+03    0.23293E-04   -0.50060E-05  7380   0.416E-02    0.175E-02
DAV:   4    -0.134142054334E+03    0.27039E-04   -0.25043E-05  6260   0.414E-02    0.829E-03
DAV:   5    -0.134142038434E+03    0.15900E-04   -0.16057E-05  5040   0.400E-02    0.627E-03
DAV:   6    -0.134142027781E+03    0.10652E-04   -0.15773E-05  5395   0.365E-02    0.424E-03
DAV:   7    -0.134142009249E+03    0.18532E-04   -0.62268E-06  4890   0.546E-02    0.572E-03
DAV:   8    -0.134141991969E+03    0.17280E-04   -0.16092E-05  5630   0.550E-02    0.550E-03
DAV:   9    -0.134141976592E+03    0.15377E-04   -0.13955E-05  5570   0.572E-02    0.301E-03
DAV:  10    -0.134141958608E+03    0.17984E-04   -0.27529E-05  6650   0.109E-01    0.344E-03
DAV:  11    -0.134141958498E+03    0.11010E-06   -0.52272E-05  6880   0.524E-02
  79 F= -.13414196E+03 E0= -.13414101E+03  d E =-.434795E-03
       N       E                     dE             d eps       ncg     rms          rms(c)
DAV:   1    -0.134141995921E+03   -0.37313E-04   -0.97455E-03  6650   0.418E-01    0.202E-02
DAV:   2    -0.134142009030E+03   -0.13109E-04   -0.24153E-04  7700   0.683E-02    0.941E-03
DAV:   3    -0.134142006750E+03    0.22808E-05   -0.15432E-05  4445   0.204E-02    0.664E-03
DAV:   4    -0.134142004594E+03    0.21554E-05   -0.29476E-06  3950   0.103E-02    0.342E-03
DAV:   5    -0.134142002371E+03    0.22227E-05   -0.23692E-06  4560   0.156E-02    0.230E-03
DAV:   6    -0.134142001479E+03    0.89277E-06   -0.23318E-06  3865   0.131E-02
  80 F= -.13414200E+03 E0= -.13414106E+03  d E =-.477775E-03
       N       E                     dE             d eps       ncg     rms          rms(c)
DAV:   1    -0.134142003388E+03   -0.10170E-05   -0.16112E-03  6580   0.171E-01    0.723E-03
DAV:   2    -0.134142005915E+03   -0.25266E-05   -0.42969E-05  6815   0.275E-02    0.452E-03
DAV:   3    -0.134142004983E+03    0.93208E-06   -0.10420E-06  3770   0.634E-03    0.315E-03
DAV:   4    -0.134142003169E+03    0.18139E-05   -0.15521E-06  4145   0.123E-02    0.156E-03
DAV:   5    -0.134142002863E+03    0.30638E-06   -0.10173E-06  3710   0.544E-03    0.149E-03
DAV:   6    -0.134142002383E+03    0.48009E-06   -0.39687E-07  3680   0.630E-03
  81 F= -.13414200E+03 E0= -.13414107E+03  d E =-.478679E-03
       N       E                     dE             d eps       ncg     rms          rms(c)
DAV:   1    -0.134142187163E+03   -0.18430E-03   -0.27862E-02  6380   0.711E-01    0.387E-02
DAV:   2    -0.134142224695E+03   -0.37532E-04   -0.73020E-04  7570   0.110E-01    0.160E-02
DAV:   3    -0.134142216759E+03    0.79364E-05   -0.16816E-05  5220   0.238E-02    0.964E-03
DAV:   4    -0.134142210094E+03    0.66650E-05   -0.87502E-06  4735   0.259E-02    0.330E-03
DAV:   5    -0.134142207851E+03    0.22429E-05   -0.72058E-06  4350   0.213E-02    0.290E-03
DAV:   6    -0.134142206875E+03    0.97575E-06   -0.50164E-06  4085   0.139E-02
  82 F= -.13414221E+03 E0= -.13414127E+03  d E =-.204492E-03
