       N       E                     dE             d eps       ncg     rms          rms(c)
DAV:   1     0.470854704680E+03    0.47085E+03   -0.41382E+04  6108   0.132E+03
DAV:   2    -0.929997745885E+02   -0.56385E+03   -0.53490E+03  7908   0.249E+02
DAV:   3    -0.147418852703E+03   -0.54419E+02   -0.54104E+02  7090   0.836E+01
DAV:   4    -0.148128201661E+03   -0.70935E+00   -0.70799E+00  7168   0.103E+01
DAV:   5    -0.148139023193E+03   -0.10822E-01   -0.10816E-01  7152   0.126E+00    0.219E+01
DAV:   6    -0.133743450116E+03    0.14396E+02   -0.82658E+01  7002   0.291E+01    0.743E+00
DAV:   7    -0.133635568365E+03    0.10788E+00   -0.16890E+00  6736   0.508E+00    0.455E+00
DAV:   8    -0.133539926920E+03    0.95641E-01   -0.47651E-01  7010   0.392E+00    0.819E-01
DAV:   9    -0.133523706334E+03    0.16221E-01   -0.71452E-02  6848   0.119E+00    0.480E-01
DAV:  10    -0.133523327488E+03    0.37885E-03   -0.38792E-02  6836   0.821E-01    0.241E-01
DAV:  11    -0.133523911508E+03   -0.58402E-03   -0.30468E-03  6920   0.255E-01    0.174E-01
DAV:  12    -0.133523808107E+03    0.10340E-03   -0.22234E-03  8896   0.287E-01    0.693E-02
DAV:  13    -0.133523794415E+03    0.13692E-04   -0.12299E-03  6890   0.147E-01    0.378E-02
DAV:  14    -0.133523771025E+03    0.23390E-04   -0.10716E-04  6988   0.527E-02    0.209E-02
DAV:  15    -0.133523759208E+03    0.11816E-04   -0.38959E-05  6314   0.300E-02    0.877E-03
DAV:  16    -0.133523754773E+03    0.44353E-05   -0.16233E-05  4582   0.259E-02
   1 F= -.13352375E+03 E0= -.13352112E+03  d E =-.133524E+03
       N       E                     dE             d eps       ncg     rms          rms(c)
DAV:   1    -0.133523909374E+03   -0.15017E-03   -0.18203E-02  6804   0.591E-01    0.208E-02
DAV:   2    -0.133523940164E+03   -0.30790E-04   -0.49178E-04  7112   0.979E-02    0.147E-02
DAV:   3    -0.133523931782E+03    0.83816E-05   -0.18959E-05  4188   0.281E-02    0.110E-02
DAV:   4    -0.133523921890E+03    0.98926E-05   -0.70699E-06  3998   0.259E-02    0.612E-03
DAV:   5    -0.133523908426E+03    0.13464E-04   -0.93227E-06  4526   0.454E-02    0.459E-03
DAV:   6    -0.133523905588E+03    0.28373E-05   -0.20250E-05  4542   0.259E-02
   2 F= -.13352391E+03 E0= -.13352127E+03  d E =-.150815E-03
       N       E                     dE             d eps       ncg     rms          rms(c)
DAV:   1    -0.133523911577E+03   -0.31510E-05   -0.32086E-03  6868   0.251E-01    0.835E-03
DAV:   2    -0.133523911891E+03   -0.31467E-06   -0.96939E-05  6912   0.495E-02    0.838E-03
DAV:   3    -0.133523907949E+03    0.39419E-05   -0.87800E-06  3764   0.177E-02    0.703E-03
DAV:   4    -0.133523902004E+03    0.59456E-05   -0.16621E-06  3824   0.133E-02    0.481E-03
DAV:   5    -0.133523884686E+03    0.17318E-04   -0.12439E-05  4594   0.521E-02    0.625E-03
DAV:   6    -0.133523870341E+03    0.14345E-04   -0.28786E-05  5836   0.797E-02    0.445E-03
DAV:   7    -0.133523860476E+03    0.98655E-05   -0.38712E-05  6324   0.117E-01
   3 F= -.13352386E+03 E0= -.13352123E+03  d E =-.105703E-03
       N       E                     dE             d eps       ncg     rms          rms(c)
DAV:   1    -0.133523878258E+03   -0.79168E-05   -0.79268E-04  6638   0.118E-01    0.128E-02
DAV:   2    -0.133523875263E+03    0.29951E-05   -0.35222E-05  5888   0.340E-02    0.521E-03
DAV:   3    -0.133523874677E+03    0.58593E-06   -0.93089E-06  3728   0.162E-02    0.315E-03
DAV:   4    -0.133523874046E+03    0.63135E-06   -0.14588E-06  3584   0.711E-03    0.158E-03
DAV:   5    -0.133523873468E+03    0.57734E-06   -0.58446E-07  3720   0.729E-03    0.120E-03
DAV:   6    -0.133523872908E+03    0.56052E-06   -0.49008E-07  3730   0.104E-02
   4 F= -.13352387E+03 E0= -.13352125E+03  d E =-.118135E-03
       N       E                     dE             d eps       ncg     rms          rms(c)
DAV:   1    -0.133523877872E+03   -0.44031E-05   -0.22365E-04  6138   0.679E-02    0.265E-03
DAV:   2    -0.133523878388E+03   -0.51672E-06   -0.93448E-06  3712   0.143E-02    0.223E-03
DAV:   3    -0.133523878201E+03    0.18752E-06   -0.75323E-07  3470   0.437E-03    0.184E-03
DAV:   4    -0.133523877761E+03    0.43948E-06   -0.33852E-07  3584   0.520E-03    0.775E-04
DAV:   5    -0.133523877490E+03    0.27117E-06   -0.19571E-07  3524   0.562E-03    0.794E-04
DAV:   6    -0.133523877420E+03    0.69784E-07   -0.25749E-07  3380   0.320E-03
   5 F= -.13352388E+03 E0= -.13352125E+03  d E =-.122647E-03
