 vasp.5.3.5 31Mar14 (build Apr 08 2024 10:12:10) complex                        
  
 executed on             LinuxIFC date 2024.07.29  17:18:56
 running on    8 total cores
 distrk:  each k-point on    8 cores,    1 groups
 distr:  one band on NCORES_PER_BAND=   4 cores,    2 groups


--------------------------------------------------------------------------------------------------------


 INCAR:
 POTCAR:    PAW_PBE O 08Apr2002                   
 POTCAR:    PAW_PBE Mg 13Apr2007                  
 POTCAR:    PAW_PBE Al 04Jan2001                  
 POTCAR:    PAW_PBE O 08Apr2002                   
   VRHFIN =O: s2p4                                                              
   LEXCH  = PE                                                                  
   EATOM  =   432.3788 eV,   31.7789 Ry                                         
                                                                                
   TITEL  = PAW_PBE O 08Apr2002                                                 
   LULTRA =        F    use ultrasoft PP ?                                      
   IUNSCR =        1    unscreen: 0-lin 1-nonlin 2-no                           
   RPACOR =    1.200    partial core radius                                     
   POMASS =   16.000; ZVAL   =    6.000    mass and valenz                      
   RCORE  =    1.520    outmost cutoff radius                                   
   RWIGS  =    1.550; RWIGS  =    0.820    wigner-seitz radius (au A)           
   ENMAX  =  400.000; ENMIN  =  300.000 eV                                      
   ICORE  =        2    local potential                                         
   LCOR   =        T    correct aug charges                                     
   LPAW   =        T    paw PP                                                  
   EAUG   =  605.392                                                            
   DEXC   =    0.000                                                            
   RMAX   =    1.553    core radius for proj-oper                               
   RAUG   =    1.300    factor for augmentation sphere                          
   RDEP   =    1.550    radius for radial grids                                 
   RDEPT  =    1.329    core radius for aug-charge                              
                                                                                
   Atomic configuration                                                         
    4 entries                                                                   
     n  l   j            E        occ.                                          
     1  0  0.50      -514.6923   2.0000                                         
     2  0  0.50       -23.9615   2.0000                                         
     2  1  0.50        -9.0305   4.0000                                         
     3  2  1.50        -9.5241   0.0000                                         
   Description                                                                  
     l       E           TYP  RCUT    TYP  RCUT                                 
     0    -23.9615318     23  1.200                                             
     0     -9.5240782     23  1.200                                             
     1     -9.0304911     23  1.520                                             
     1      8.1634956     23  1.520                                             
     2     -9.5240782      7  1.500                                             
  local pseudopotential read in
  partial core-charges read in
  partial kinetic energy density read in
  kinetic energy density of atom read in
  atomic valenz-charges read in
  non local Contribution for L=           0  read in
    real space projection operators read in
  non local Contribution for L=           0  read in
    real space projection operators read in
  non local Contribution for L=           1  read in
    real space projection operators read in
  non local Contribution for L=           1  read in
    real space projection operators read in
    PAW grid and wavefunctions read in
 
   number of l-projection  operators is LMAX  =           4
   number of lm-projection operators is LMMAX =           8
 
 POTCAR:    PAW_PBE Mg 13Apr2007                  
   VRHFIN =Mg: s2p0                                                             
   LEXCH  = PE                                                                  
   EATOM  =    23.0369 eV,    1.6932 Ry                                         
                                                                                
   TITEL  = PAW_PBE Mg 13Apr2007                                                
   LULTRA =        F    use ultrasoft PP ?                                      
   IUNSCR =        1    unscreen: 0-lin 1-nonlin 2-no                           
   RPACOR =    1.500    partial core radius                                     
   POMASS =   24.305; ZVAL   =    2.000    mass and valenz                      
   RCORE  =    2.000    outmost cutoff radius                                   
   RWIGS  =    2.880; RWIGS  =    1.524    wigner-seitz radius (au A)           
   ENMAX  =  200.000; ENMIN  =  100.000 eV                                      
   RCLOC  =    1.506    cutoff for local pot                                    
   LCOR   =        T    correct aug charges                                     
   LPAW   =        T    paw PP                                                  
   EAUG   =  454.734                                                            
   DEXC   =    0.000                                                            
   RMAX   =    2.045    core radius for proj-oper                               
   RAUG   =    1.300    factor for augmentation sphere                          
   RDEP   =    2.025    radius for radial grids                                 
   RDEPT  =    1.942    core radius for aug-charge                              
                                                                                
   Atomic configuration                                                         
    6 entries                                                                   
     n  l   j            E        occ.                                          
     1  0  0.50     -1259.6230   2.0000                                         
     2  0  0.50       -79.8442   2.0000                                         
     2  1  1.50       -46.6121   6.0000                                         
     3  0  0.50        -4.7055   2.0000                                         
     3  1  0.50        -1.3660   0.0000                                         
     3  2  1.50        -1.3606   0.0000                                         
   Description                                                                  
     l       E           TYP  RCUT    TYP  RCUT                                 
     0     -4.7054661     23  2.000                                             
     0     27.2116520     23  2.000                                             
     1      1.3605826     23  2.000                                             
     1     27.2116520     23  2.000                                             
     2     -1.3605826     23  2.000                                             
  local pseudopotential read in
  partial core-charges read in
  partial kinetic energy density read in
  atomic valenz-charges read in
  non local Contribution for L=           0  read in
    real space projection operators read in
  non local Contribution for L=           0  read in
    real space projection operators read in
  non local Contribution for L=           1  read in
    real space projection operators read in
  non local Contribution for L=           1  read in
    real space projection operators read in
  non local Contribution for L=           2  read in
    real space projection operators read in
    PAW grid and wavefunctions read in
 
   number of l-projection  operators is LMAX  =           5
   number of lm-projection operators is LMMAX =          13
 
 POTCAR:    PAW_PBE Al 04Jan2001                  
   VRHFIN =Al: s2p1                                                             
   LEXCH  = PE                                                                  
   EATOM  =    53.5387 eV,    3.9350 Ry                                         
                                                                                
   TITEL  = PAW_PBE Al 04Jan2001                                                
   LULTRA =        F    use ultrasoft PP ?                                      
   IUNSCR =        1    unscreen: 0-lin 1-nonlin 2-no                           
   RPACOR =    1.500    partial core radius                                     
   POMASS =   26.981; ZVAL   =    3.000    mass and valenz                      
   RCORE  =    1.900    outmost cutoff radius                                   
   RWIGS  =    2.650; RWIGS  =    1.402    wigner-seitz radius (au A)           
   ENMAX  =  240.300; ENMIN  =  180.225 eV                                      
   ICORE  =        2    local potential                                         
   LCOR   =        T    correct aug charges                                     
   LPAW   =        T    paw PP                                                  
   EAUG   =  291.052                                                            
   DEXC   =    0.000                                                            
   RMAX   =    1.939    core radius for proj-oper                               
   RAUG   =    1.300    factor for augmentation sphere                          
   RDEP   =    1.966    radius for radial grids                                 
   RDEPT  =    1.856    core radius for aug-charge                              
                                                                                
   Atomic configuration                                                         
    6 entries                                                                   
     n  l   j            E        occ.                                          
     1  0  0.50     -1511.1048   2.0000                                         
     2  0  0.50      -108.1629   2.0000                                         
     2  1  1.50       -69.6402   6.0000                                         
     3  0  0.50        -7.7528   2.0000                                         
     3  1  1.50        -2.7121   1.0000                                         
     3  2  2.50        -2.7212   0.0000                                         
   Description                                                                  
     l       E           TYP  RCUT    TYP  RCUT                                 
     0     -7.7528455     23  1.900                                             
     0     -3.3096929     23  1.900                                             
     1     -2.7120682     23  1.900                                             
     1     13.6058260     23  1.900                                             
     2     -2.7211652      7  1.900                                             
  local pseudopotential read in
  partial core-charges read in
  partial kinetic energy density read in
  atomic valenz-charges read in
  non local Contribution for L=           0  read in
    real space projection operators read in
  non local Contribution for L=           0  read in
    real space projection operators read in
  non local Contribution for L=           1  read in
    real space projection operators read in
  non local Contribution for L=           1  read in
    real space projection operators read in
    PAW grid and wavefunctions read in
 
   number of l-projection  operators is LMAX  =           4
   number of lm-projection operators is LMMAX =           8
 

 ----------------------------------------------------------------------------- 
|                                                                             |
|  ADVICE TO THIS USER RUNNING 'VASP/VAMP'   (HEAR YOUR MASTER'S VOICE ...):  |
|                                                                             |
|      You have a (more or less) 'large supercell' and for larger cells       |
|      it might be more efficient to use real space projection opertators     |
|      So try LREAL= Auto  in the INCAR   file.                               |
|      Mind: At the moment your POTCAR file does not contain real space       |
|       projectors, and has to be modified,  BUT if you                       |
|      want to do an extremely  accurate calculation you might also keep the  |
|      reciprocal projection scheme          (i.e. LREAL=.FALSE.)             |
|                                                                             |
 ----------------------------------------------------------------------------- 

  PAW_PBE O 08Apr2002                   :
 energy of atom  1       EATOM= -432.3788
 kinetic energy error for atom=    0.0208 (will be added to EATOM!!)
  PAW_PBE Mg 13Apr2007                  :
 energy of atom  2       EATOM=  -23.0369
 kinetic energy error for atom=    0.0000 (will be added to EATOM!!)
  PAW_PBE Al 04Jan2001                  :
 energy of atom  3       EATOM=  -53.5387
 kinetic energy error for atom=    0.0002 (will be added to EATOM!!)
 
 
 POSCAR: Layer                                   
  positions in direct lattice
  velocities in cartesian coordinates
 exchange correlation table for  LEXCH =        8
   RHO(1)=    0.500       N(1)  =     2000
   RHO(2)=  100.500       N(2)  =     4000
 


--------------------------------------------------------------------------------------------------------


 ion  position               nearest neighbor table
   1  0.556  0.444  0.349-  15 2.14  14 2.14  15 2.14  15 2.14  14 2.14  14 2.14
   2  0.500  0.500  0.526-  16 2.14  17 2.14  16 2.14  16 2.14  17 2.14  17 2.14
   3  0.444  0.556  0.703-  19 2.14  18 2.14  19 2.14  19 2.14  18 2.14  18 2.14
   4  0.242  0.758  0.290-  14 2.14  14 2.14  14 2.14  10 2.16  10 2.16  10 2.16
   5  0.871  0.129  0.408-  15 2.14  11 2.14  15 2.14  15 2.14  11 2.14  11 2.14
   6  0.185  0.815  0.467-  11 2.14  16 2.14  11 2.14  11 2.14  16 2.14  16 2.14
   7  0.815  0.185  0.585-  17 2.14  12 2.14  17 2.14  17 2.14  12 2.14  12 2.14
   8  0.129  0.871  0.644-  12 2.14  18 2.14  12 2.14  12 2.14  18 2.14  18 2.14
   9  0.758  0.242  0.762-  19 2.14  19 2.14  19 2.14  13 2.16  13 2.16  13 2.16
  10  0.585  0.415  0.259-   4 2.16   4 2.16   4 2.16  14 3.08  14 3.08  14 3.08  21 3.12  21 3.12
                            21 3.12
  11  0.528  0.472  0.437-   6 2.14   5 2.14   5 2.14   5 2.14   6 2.14   6 2.14  15 3.06  15 3.06
                            16 3.06  16 3.06  15 3.06  16 3.06
  12  0.472  0.528  0.614-   8 2.14   7 2.14   8 2.14   8 2.14   7 2.14   7 2.14  17 3.06  17 3.06
                            18 3.06  18 3.06  18 3.06  17 3.06
  13  0.415  0.585  0.792-   9 2.16   9 2.16   9 2.16  19 3.08  19 3.08  19 3.08  24 3.12  24 3.12
                            24 3.12
  14  0.899  0.101  0.319-   4 2.14   4 2.14   4 2.14   1 2.14   1 2.14   1 2.14  15 3.06  15 3.06
                            15 3.06  10 3.08  10 3.08  10 3.08
  15  0.213  0.787  0.378-   5 2.14   1 2.14   5 2.14   5 2.14   1 2.14   1 2.14  11 3.06  11 3.06
                            11 3.06  14 3.06  14 3.06  14 3.06
  16  0.843  0.157  0.496-   2 2.14   6 2.14   2 2.14   2 2.14   6 2.14   6 2.14  11 3.06  11 3.06
                            17 3.06  17 3.06  11 3.06  17 3.06
  17  0.157  0.843  0.555-   7 2.14   2 2.14   7 2.14   7 2.14   2 2.14   2 2.14  12 3.06  12 3.06
                            12 3.06  16 3.06  16 3.06  16 3.06
  18  0.787  0.213  0.673-   8 2.14   3 2.14   3 2.14   3 2.14   8 2.14   8 2.14  19 3.06  19 3.06
                            12 3.06  12 3.06  19 3.06  12 3.06
  19  0.101  0.899  0.732-   3 2.14   9 2.14   3 2.14   3 2.14   9 2.14   9 2.14  18 3.06  18 3.06
                            18 3.06  13 3.08  13 3.08  13 3.08
  20  1.000  0.000  0.026-  25 2.97  23 2.97  23 2.98  23 2.98  25 2.98  25 2.98
  21  0.939  0.061  0.199-  22 3.05  22 3.06  22 3.06  10 3.12  10 3.12  10 3.12
  22  0.626  0.374  0.140-  23 2.98  23 2.99  23 2.99  21 3.05  21 3.06  21 3.06
  23  0.313  0.687  0.082-  20 2.97  20 2.98  20 2.98  22 2.98  22 2.99  22 2.99
  24  0.061  0.939  0.853-  26 3.05  26 3.06  26 3.06  13 3.12  13 3.12  13 3.12
  25  0.687  0.313  0.969-  20 2.97  20 2.98  20 2.98  26 2.98  26 2.99  26 2.99
  26  0.374  0.626  0.912-  25 2.98  25 2.99  25 2.99  24 3.05  24 3.06  24 3.06
 
  LATTYP: Found a base centered monoclinic cell.
 ALAT       =     5.1835214829
 B/A-ratio  =     0.5778353023
 C/A-ratio  =     8.4032435795
 COS(beta)  =    -0.1728202054
  
  Lattice vectors:
  
 A1 = (  -2.5925900058,   1.4952752266,  -0.0518951648)
 A2 = (   0.0013482762,   2.9928857368,  -0.0518951490)
 A3 = (   4.7735158528,  -8.2679694689, -42.4992691941)


Analysis of symmetry for initial positions (statically):
=====================================================================
 Subroutine PRICEL returns:
 Original cell was already a primitive cell.
 

 Routine SETGRP: Setting up the symmetry group for a 
 base centered monoclinic supercell.


 Subroutine GETGRP returns: Found  2 space group operations
 (whereof  2 operations were pure point group operations)
 out of a pool of  4 trial point group operations.


The static configuration has the point symmetry C_1h.


Analysis of symmetry for dynamics (positions and initial velocities):
=====================================================================
 Subroutine PRICEL returns:
 Original cell was already a primitive cell.
 

 Routine SETGRP: Setting up the symmetry group for a 
 base centered monoclinic supercell.


 Subroutine GETGRP returns: Found  2 space group operations
 (whereof  2 operations were pure point group operations)
 out of a pool of  4 trial point group operations.


The dynamic configuration has the point symmetry C_1h.


Analysis of constrained symmetry for selective dynamics:
=====================================================================
 Subroutine PRICEL returns:
 Original cell was already a primitive cell.
 

 Routine SETGRP: Setting up the symmetry group for a 
 base centered monoclinic supercell.


 Subroutine GETGRP returns: Found  2 space group operations
 (whereof  2 operations were pure point group operations)
 out of a pool of  4 trial point group operations.


The constrained configuration has the point symmetry C_1h.
 
 
 KPOINTS: K-Spacing Value to Generate K-Mesh: 0.02

Automatic generation of k-mesh.
Space group operators:
 irot       det(A)        alpha          n_x          n_y          n_z        tau_x        tau_y        tau_z
    1     1.000000     0.000000     1.000000     0.000000     0.000000     0.000000     0.000000     0.000000
    2    -1.000000   180.000000     0.866025     0.500000     0.000000     0.000000     0.000000     0.000000
 
 Subroutine IBZKPT returns following result:
 ===========================================
 
 Found     49 irreducible k-points:
 
 Following reciprocal coordinates:
            Coordinates               Weight
  0.000000  0.000000  0.000000      1.000000
  0.076923  0.000000  0.000000      4.000000
  0.153846 -0.000000  0.000000      4.000000
  0.230769  0.000000  0.000000      4.000000
  0.307692 -0.000000  0.000000      4.000000
  0.384615  0.000000  0.000000      4.000000
  0.461538  0.000000  0.000000      4.000000
  0.076923  0.076923  0.000000      2.000000
  0.153846  0.076923 -0.000000      4.000000
  0.230769  0.076923  0.000000      4.000000
  0.307692  0.076923 -0.000000      4.000000
  0.384615  0.076923  0.000000      4.000000
  0.461538  0.076923  0.000000      4.000000
 -0.461538  0.076923  0.000000      4.000000
 -0.384615  0.076923  0.000000      4.000000
 -0.307692  0.076923  0.000000      4.000000
 -0.230769  0.076923  0.000000      4.000000
 -0.153846  0.076923  0.000000      4.000000
 -0.076923  0.076923 -0.000000      2.000000
  0.153846  0.153846 -0.000000      2.000000
  0.230769  0.153846 -0.000000      4.000000
  0.307692  0.153846 -0.000000      4.000000
  0.384615  0.153846 -0.000000      4.000000
  0.461538  0.153846 -0.000000      4.000000
 -0.461538  0.153846 -0.000000      4.000000
 -0.384615  0.153846  0.000000      4.000000
 -0.307692  0.153846  0.000000      4.000000
 -0.230769  0.153846 -0.000000      4.000000
 -0.153846  0.153846 -0.000000      2.000000
  0.230769  0.230769  0.000000      2.000000
  0.307692  0.230769 -0.000000      4.000000
  0.384615  0.230769 -0.000000      4.000000
  0.461538  0.230769 -0.000000      4.000000
 -0.461538  0.230769 -0.000000      4.000000
 -0.384615  0.230769 -0.000000      4.000000
 -0.307692  0.230769  0.000000      4.000000
 -0.230769  0.230769 -0.000000      2.000000
  0.307692  0.307692  0.000000      2.000000
  0.384615  0.307692 -0.000000      4.000000
  0.461538  0.307692 -0.000000      4.000000
 -0.461538  0.307692 -0.000000      4.000000
 -0.384615  0.307692 -0.000000      4.000000
 -0.307692  0.307692 -0.000000      2.000000
  0.384615  0.384615 -0.000000      2.000000
  0.461538  0.384615 -0.000000      4.000000
 -0.461538  0.384615  0.000000      4.000000
 -0.384615  0.384615  0.000000      2.000000
  0.461538  0.461538  0.000000      2.000000
 -0.461538  0.461538 -0.000000      2.000000
 
 Following cartesian coordinates:
            Coordinates               Weight
  0.000000  0.000000  0.000000      1.000000
  0.029665 -0.000018 -0.000284      4.000000
  0.059331 -0.000037 -0.000569      4.000000
  0.088996 -0.000055 -0.000853      4.000000
  0.118662 -0.000073 -0.001138      4.000000
  0.148327 -0.000091 -0.001422      4.000000
  0.177993 -0.000110 -0.001706      4.000000
  0.044482  0.025682  0.000000      2.000000
  0.074148  0.025664 -0.000284      4.000000
  0.103813  0.025645 -0.000569      4.000000
  0.133479  0.025627 -0.000853      4.000000
  0.163144  0.025609 -0.001138      4.000000
  0.192810  0.025590 -0.001422      4.000000
 -0.163176  0.025810  0.001991      4.000000
 -0.133511  0.025792  0.001706      4.000000
 -0.103845  0.025773  0.001422      4.000000
 -0.074180  0.025755  0.001138      4.000000
 -0.044514  0.025737  0.000853      4.000000
 -0.014849  0.025719  0.000569      2.000000
  0.088965  0.051364  0.000000      2.000000
  0.118630  0.051346 -0.000284      4.000000
  0.148296  0.051327 -0.000569      4.000000
  0.177961  0.051309 -0.000853      4.000000
  0.207627  0.051291 -0.001138      4.000000
 -0.148359  0.051510  0.002275      4.000000
 -0.118694  0.051492  0.001991      4.000000
 -0.089028  0.051474  0.001706      4.000000
 -0.059363  0.051455  0.001422      4.000000
 -0.029697  0.051437  0.001138      2.000000
  0.133447  0.077046  0.000000      2.000000
  0.163113  0.077028 -0.000284      4.000000
  0.192778  0.077009 -0.000569      4.000000
  0.222444  0.076991 -0.000853      4.000000
 -0.133542  0.077210  0.002559      4.000000
 -0.103877  0.077192  0.002275      4.000000
 -0.074211  0.077174  0.001991      4.000000
 -0.044546  0.077156  0.001706      2.000000
  0.177930  0.102728  0.000000      2.000000
  0.207595  0.102709 -0.000284      4.000000
  0.237261  0.102691 -0.000569      4.000000
 -0.118725  0.102911  0.002844      4.000000
 -0.089060  0.102892  0.002559      4.000000
 -0.059394  0.102874  0.002275      2.000000
  0.222412  0.128410  0.000000      2.000000
  0.252078  0.128391 -0.000284      4.000000
 -0.103908  0.128611  0.003128      4.000000
 -0.074243  0.128593  0.002844      2.000000
  0.266894  0.154092  0.000000      2.000000
 -0.089092  0.154311  0.003413      2.000000
 


--------------------------------------------------------------------------------------------------------




 Dimension of arrays:
   k-points           NKPTS =     49   k-points in BZ     NKDIM =     49   number of bands    NBANDS=     62
   number of dos      NEDOS =    301   number of ions     NIONS =     26
   non local maximal  LDIM  =      5   non local SUM 2l+1 LMDIM =     13
   total plane-waves  NPLWV = 184320
   max r-space proj   IRMAX =      1   max aug-charges    IRDMAX= 189228
   dimension x,y,z NGX =    24 NGY =   24 NGZ =  320
   dimension x,y,z NGXF=    48 NGYF=   48 NGZF=  640
   support grid    NGXF=    96 NGYF=   96 NGZF= 1280
   ions per type =               9  10   7
 NGX,Y,Z   is equivalent  to a cutoff of  13.33, 13.33, 12.45 a.u.
 NGXF,Y,Z  is equivalent  to a cutoff of  26.66, 26.66, 24.91 a.u.


 I would recommend the setting:
   dimension x,y,z NGX =    22 NGY =   22 NGZ =  318
 SYSTEM =  unknown system                          
 POSCAR =  Layer                                   

 Startparameter for this run:
   NWRITE =      2    write-flag & timer
   PREC   = accura    normal or accurate (medium, high low for compatibility)
   ISTART =      0    job   : 0-new  1-cont  2-samecut
   ICHARG =      2    charge: 1-file 2-atom 10-const
   ISPIN  =      1    spin polarized calculation?
   LNONCOLLINEAR =      F non collinear calculations
   LSORBIT =      F    spin-orbit coupling
   INIWAV =      1    electr: 0-lowe 1-rand  2-diag
   LASPH  =      F    aspherical Exc in radial PAW
   METAGGA=      F    non-selfconsistent MetaGGA calc.

 Electronic Relaxation 1
   ENCUT  =  520.0 eV  38.22 Ry    6.18 a.u.   5.57  5.57 79.42*2*pi/ulx,y,z
   ENINI  =  520.0     initial cutoff
   ENAUG  =  605.4 eV  augmentation charge cutoff
   NELM   =    100;   NELMIN=  6; NELMDL=  0     # of ELM steps 
   EDIFF  = 0.1E-04   stopping-criterion for ELM
   LREAL  =      F    real-space projection
   NLSPLINE    = F    spline interpolate recip. space projectors
   LCOMPAT=      F    compatible to vasp.4.4
   GGA_COMPAT  = T    GGA compatible to vasp.4.4-vasp.4.6
   LMAXPAW     = -100 max onsite density
   LMAXMIX     =    2 max onsite mixed and CHGCAR
   VOSKOWN=      0    Vosko Wilk Nusair interpolation
   ROPT   =    0.00000   0.00000   0.00000
 Ionic relaxation
   EDIFFG = -.2E-01   stopping-criterion for IOM
   NSW    =    500    number of steps for IOM
   NBLOCK =      1;   KBLOCK =    500    inner block; outer block 
   IBRION =      2    ionic relax: 0-MD 1-quasi-New 2-CG
   NFREE  =      1    steps in history (QN), initial steepest desc. (CG)
   ISIF   =      2    stress and relaxation
   IWAVPR =     11    prediction:  0-non 1-charg 2-wave 3-comb
   ISYM   =      2    0-nonsym 1-usesym 2-fastsym
   LCORR  =      T    Harris-Foulkes like correction to forces

   POTIM  = 0.5000    time-step for ionic-motion
   TEIN   =    0.0    initial temperature
   TEBEG  =    0.0;   TEEND  =   0.0 temperature during run
   SMASS  =  -3.00    Nose mass-parameter (am)
   estimated Nose-frequenzy (Omega)   =  0.10E-29 period in steps =****** mass=  -0.205E-27a.u.
   SCALEE = 1.0000    scale energy and forces
   NPACO  =    256;   APACO  = 16.0  distance and # of slots for P.C.
   PSTRESS=    0.0 pullay stress

  Mass of Ions in am
   POMASS =  16.00 24.30 26.98
  Ionic Valenz
   ZVAL   =   6.00  2.00  3.00
  Atomic Wigner-Seitz radii
   RWIGS  =  -1.00 -1.00 -1.00
  virtual crystal weights 
   VCA    =   1.00  1.00  1.00
   NELECT =      95.0000    total number of electrons
   NUPDOWN=      -1.0000    fix difference up-down

 DOS related values:
   EMIN   =  10.00;   EMAX   =-10.00  energy-range for DOS
   EFERMI =   0.00
   ISMEAR =     0;   SIGMA  =   0.05  broadening in eV -4-tet -1-fermi 0-gaus

 Electronic relaxation 2 (details)
   IALGO  =     38    algorithm
   LDIAG  =      T    sub-space diagonalisation (order eigenvalues)
   LSUBROT=      F    optimize rotation matrix (better conditioning)
   TURBO    =      0    0=normal 1=particle mesh
   IRESTART =      0    0=no restart 2=restart with 2 vectors
   NREBOOT  =      0    no. of reboots
   NMIN     =      0    reboot dimension
   EREF     =   0.00    reference energy to select bands
   IMIX   =      4    mixing-type and parameters
     AMIX     =   0.40;   BMIX     =  1.00
     AMIX_MAG =   1.60;   BMIX_MAG =  1.00
     AMIN     =   0.01
     WC   =   100.;   INIMIX=   1;  MIXPRE=   1;  MAXMIX= -45

 Intra band minimization:
   WEIMIN = 0.0010     energy-eigenvalue tresh-hold
   EBREAK =  0.40E-07  absolut break condition
   DEPER  =   0.30     relativ break condition  

   TIME   =   0.40     timestep for ELM

  volume/ion in A,a.u.               =      12.74        86.00
  Fermi-wavevector in a.u.,A,eV,Ry     =   1.079510  2.039979 15.855447  1.165342
  Thomas-Fermi vector in A             =   2.215477
 
 Write flags
   LWAVE  =      F    write WAVECAR
   LCHARG =      T    write CHGCAR
   LVTOT  =      F    write LOCPOT, total local potential
   LVHAR  =      F    write LOCPOT, Hartree potential only
   LELF   =      F    write electronic localiz. function (ELF)
   LORBIT =      0    0 simple, 1 ext, 2 COOP (PROOUT)


 Dipole corrections
   LMONO  =      F    monopole corrections only (constant potential shift)
   LDIPOL =      F    correct potential (dipole corrections)
   IDIPOL =      0    1-x, 2-y, 3-z, 4-all directions 
   EPSILON=  1.0000000 bulk dielectric constant

 Exchange correlation treatment:
   GGA     =    --    GGA type
   LEXCH   =     8    internal setting for exchange type
   VOSKOWN=      0    Vosko Wilk Nusair interpolation
   LHFCALC =     F    Hartree Fock is set to
   LHFONE  =     F    Hartree Fock one center treatment
   AEXX    =    0.0000 exact exchange contribution

 Linear response parameters
   LEPSILON=     F    determine dielectric tensor
   LRPA    =     F    only Hartree local field effects (RPA)
   LNABLA  =     F    use nabla operator in PAW spheres
   LVEL    =     F    velocity operator in full k-point grid
   LINTERFAST=   F  fast interpolation
   KINTER  =     0    interpolate to denser k-point grid
   CSHIFT  =0.1000    complex shift for real part using Kramers Kronig
   OMEGAMAX=  -1.0    maximum frequency
   DEG_THRESHOLD= 0.2000000E-02 threshold for treating states as degnerate
   RTIME   =    0.100 relaxation time in fs

 Orbital magnetization related:
   ORBITALMAG=     F  switch on orbital magnetization
   LCHIMAG   =     F  perturbation theory with respect to B field
   DQ        =  0.001000  dq finite difference perturbation B field



--------------------------------------------------------------------------------------------------------


 conjugate gradient relaxation of ions
   using selective dynamics as specified on POSCAR
 charge density and potential will be updated during run
 non-spin polarized calculation
 Variant of blocked Davidson
 Davidson routine will perform the subspace rotation
 perform sub-space diagonalisation
    after iterative eigenvector-optimisation
 modified Broyden-mixing scheme, WC =      100.0
 initial mixing is a Kerker type mixing with AMIX =  0.4000 and BMIX =      1.0000
 Hartree-type preconditioning will be used
 using additional bands           14
 reciprocal scheme for non local part
 use partial core corrections
 calculate Harris-corrections to forces 
   (improved forces if not selfconsistent)
 use gradient corrections 
 use of overlap-Matrix (Vanderbilt PP)
 Gauss-broadening in eV      SIGMA  =   0.05


--------------------------------------------------------------------------------------------------------


  energy-cutoff  :      520.00
  volume of cell :      331.34
      direct lattice vectors                 reciprocal lattice vectors
     2.592590006 -1.495275227  0.051895165     0.385651500 -0.000237838 -0.003697005
     0.001348276  2.992885737 -0.051895149     0.192619776  0.334103016  0.003697005
     0.408967606 -0.708352458 42.706849822    -0.000234562  0.000406274  0.023424432

  length of vectors
     2.993336608  2.993335925 42.714681778     0.385669293  0.385669381  0.023429129


 
 k-points in units of 2pi/SCALE and weight: K-Spacing Value to Generate K-Mesh: 0.02
   0.00000000  0.00000000  0.00000000       0.006
   0.02966550 -0.00001830 -0.00028439       0.024
   0.05933100 -0.00003659 -0.00056877       0.024
   0.08899650 -0.00005489 -0.00085316       0.024
   0.11866200 -0.00007318 -0.00113754       0.024
   0.14832750 -0.00009148 -0.00142193       0.024
   0.17799300 -0.00010977 -0.00170631       0.024
   0.04448241  0.02568194  0.00000000       0.012
   0.07414791  0.02566364 -0.00028439       0.024
   0.10381341  0.02564535 -0.00056877       0.024
   0.13347891  0.02562705 -0.00085316       0.024
   0.16314441  0.02560876 -0.00113754       0.024
   0.19280991  0.02559046 -0.00142193       0.024
  -0.16317609  0.02581000  0.00199070       0.024
  -0.13351059  0.02579171  0.00170631       0.024
  -0.10384509  0.02577341  0.00142193       0.024
  -0.07417959  0.02575512  0.00113754       0.024
  -0.04451409  0.02573682  0.00085316       0.024
  -0.01484859  0.02571853  0.00056877       0.012
   0.08896481  0.05136387  0.00000000       0.012
   0.11863031  0.05134558 -0.00028439       0.024
   0.14829581  0.05132728 -0.00056877       0.024
   0.17796131  0.05130899 -0.00085316       0.024
   0.20762681  0.05129069 -0.00113754       0.024
  -0.14835919  0.05151024  0.00227508       0.024
  -0.11869369  0.05149194  0.00199070       0.024
  -0.08902819  0.05147364  0.00170631       0.024
  -0.05936269  0.05145535  0.00142193       0.024
  -0.02969719  0.05143705  0.00113754       0.012
   0.13344722  0.07704581  0.00000000       0.012
   0.16311272  0.07702752 -0.00028439       0.024
   0.19277822  0.07700922 -0.00056877       0.024
   0.22244372  0.07699092 -0.00085316       0.024
  -0.13354228  0.07721047  0.00255947       0.024
  -0.10387678  0.07719217  0.00227508       0.024
  -0.07421128  0.07717388  0.00199070       0.024
  -0.04454578  0.07715558  0.00170631       0.012
   0.17792962  0.10272775  0.00000000       0.012
   0.20759512  0.10270945 -0.00028439       0.024
   0.23726062  0.10269116 -0.00056877       0.024
  -0.11872538  0.10291070  0.00284385       0.024
  -0.08905988  0.10289240  0.00255947       0.024
  -0.05939438  0.10287411  0.00227508       0.012
   0.22241203  0.12840968  0.00000000       0.012
   0.25207753  0.12839139 -0.00028439       0.024
  -0.10390847  0.12861093  0.00312824       0.024
  -0.07424297  0.12859264  0.00284385       0.012
   0.26689444  0.15409162  0.00000000       0.012
  -0.08909156  0.15431116  0.00341262       0.012
 
 k-points in reciprocal lattice and weights: K-Spacing Value to Generate K-Mesh: 0.02
   0.00000000  0.00000000  0.00000000       0.006
   0.07692308  0.00000000  0.00000000       0.024
   0.15384615 -0.00000000  0.00000000       0.024
   0.23076923  0.00000000  0.00000000       0.024
   0.30769231 -0.00000000  0.00000000       0.024
   0.38461538  0.00000000  0.00000000       0.024
   0.46153846  0.00000000  0.00000000       0.024
   0.07692308  0.07692308  0.00000000       0.012
   0.15384615  0.07692308 -0.00000000       0.024
   0.23076923  0.07692308  0.00000000       0.024
   0.30769231  0.07692308 -0.00000000       0.024
   0.38461538  0.07692308  0.00000000       0.024
   0.46153846  0.07692308  0.00000000       0.024
  -0.46153846  0.07692308  0.00000000       0.024
  -0.38461538  0.07692308  0.00000000       0.024
  -0.30769231  0.07692308  0.00000000       0.024
  -0.23076923  0.07692308  0.00000000       0.024
  -0.15384615  0.07692308  0.00000000       0.024
  -0.07692308  0.07692308 -0.00000000       0.012
   0.15384615  0.15384615 -0.00000000       0.012
   0.23076923  0.15384615 -0.00000000       0.024
   0.30769231  0.15384615 -0.00000000       0.024
   0.38461538  0.15384615 -0.00000000       0.024
   0.46153846  0.15384615 -0.00000000       0.024
  -0.46153846  0.15384615 -0.00000000       0.024
  -0.38461538  0.15384615  0.00000000       0.024
  -0.30769231  0.15384615  0.00000000       0.024
  -0.23076923  0.15384615 -0.00000000       0.024
  -0.15384615  0.15384615 -0.00000000       0.012
   0.23076923  0.23076923  0.00000000       0.012
   0.30769231  0.23076923 -0.00000000       0.024
   0.38461538  0.23076923 -0.00000000       0.024
   0.46153846  0.23076923 -0.00000000       0.024
  -0.46153846  0.23076923 -0.00000000       0.024
  -0.38461538  0.23076923 -0.00000000       0.024
  -0.30769231  0.23076923  0.00000000       0.024
  -0.23076923  0.23076923 -0.00000000       0.012
   0.30769231  0.30769231  0.00000000       0.012
   0.38461538  0.30769231 -0.00000000       0.024
   0.46153846  0.30769231 -0.00000000       0.024
  -0.46153846  0.30769231 -0.00000000       0.024
  -0.38461538  0.30769231 -0.00000000       0.024
  -0.30769231  0.30769231 -0.00000000       0.012
   0.38461538  0.38461538 -0.00000000       0.012
   0.46153846  0.38461538 -0.00000000       0.024
  -0.46153846  0.38461538  0.00000000       0.024
  -0.38461538  0.38461538  0.00000000       0.012
   0.46153846  0.46153846  0.00000000       0.012
  -0.46153846  0.46153846 -0.00000000       0.012
 
 position of ions in fractional coordinates (direct lattice) 
   0.55618440  0.44381560  0.34861937
   0.50002949  0.49997051  0.52578210
   0.44385779  0.55614221  0.70297219
   0.24177930  0.75822070  0.28959009
   0.87071951  0.12928049  0.40767360
   0.18534282  0.81465718  0.46672966
   0.81471314  0.18528686  0.58483420
   0.12933463  0.87066537  0.64389547
   0.75824796  0.24175204  0.76201207
   0.58487747  0.41512253  0.25934520
   0.52800739  0.47199261  0.43720242
   0.47203645  0.52796355  0.61438746
   0.41514552  0.58485448  0.79223467
   0.89896399  0.10103601  0.31906071
   0.21342794  0.78657206  0.37815188
   0.84267761  0.15732239  0.49626278
   0.15736260  0.84263740  0.55534368
   0.78661249  0.21338751  0.67343461
   0.10108645  0.89891355  0.73247576
   0.99990547  0.00009453  0.02578627
   0.93879346  0.06120654  0.19851622
   0.62614816  0.37385184  0.13957375
   0.31279672  0.68720328  0.08245943
   0.06117731  0.93882269  0.85305785
   0.68704765  0.31295235  0.96911377
   0.37372429  0.62627571  0.91199981
 
 position of ions in cartesian coordinates  (Angst):
   1.58513052  0.24969525 14.89426663
   1.51207340  0.37623387 22.45450036
   1.43898395  0.50282846 30.01590090
   0.74628985  1.70260947 12.34067961
   2.42431830 -1.20382017 17.44893214
   0.67249364  1.83042823 19.89989525
   2.35164522 -1.07794674 25.00909073
   0.59981795  1.95630617 27.46027557
   2.27779027 -0.95002626 32.56993861
   1.62297097  0.18415369 11.08462587
   1.54834469  0.31341016 18.67444516
   1.47577338  0.43910732 26.23565067
   1.40108898  0.56846447 33.82503982
   2.46126678 -1.26781680 13.66748634
   0.70904352  1.76712200 16.11993200
   2.38788507 -1.14071599 21.22938664
   0.63623040  1.89323798 23.68141657
   2.31506434 -1.01458681 28.79001815
   0.56284656  2.02034247 31.24032873
   2.60289080 -1.51311672  1.15313560
   2.51517578 -1.36118989  8.52354478
   1.68093065  0.08376461  5.97384833
   0.84560342  1.53059338  3.50215259
   0.50874650  2.11404649 36.38586800
   2.17799095 -0.77716882 41.40720988
   1.34273663  0.66953367 38.93553260
 


--------------------------------------------------------------------------------------------------------


 k-point  1 :   0.0000 0.0000 0.0000  plane waves:    9059
 k-point  2 :   0.0769 0.0000 0.0000  plane waves:    9043
 k-point  3 :   0.1538-0.0000 0.0000  plane waves:    9015
 k-point  4 :   0.2308 0.0000 0.0000  plane waves:    8980
 k-point  5 :   0.3077-0.0000 0.0000  plane waves:    8928
 k-point  6 :   0.3846 0.0000 0.0000  plane waves:    8864
 k-point  7 :   0.4615 0.0000 0.0000  plane waves:    8886
 k-point  8 :   0.0769 0.0769 0.0000  plane waves:    9025
 k-point  9 :   0.1538 0.0769-0.0000  plane waves:    8993
 k-point 10 :   0.2308 0.0769 0.0000  plane waves:    8942
 k-point 11 :   0.3077 0.0769-0.0000  plane waves:    8913
 k-point 12 :   0.3846 0.0769 0.0000  plane waves:    8885
 k-point 13 :   0.4615 0.0769 0.0000  plane waves:    8843
 k-point 14 :  -0.4615 0.0769 0.0000  plane waves:    8877
 k-point 15 :  -0.3846 0.0769 0.0000  plane waves:    8917
 k-point 16 :  -0.3077 0.0769 0.0000  plane waves:    8941
 k-point 17 :  -0.2308 0.0769 0.0000  plane waves:    8989
 k-point 18 :  -0.1538 0.0769 0.0000  plane waves:    9017
 k-point 19 :  -0.0769 0.0769-0.0000  plane waves:    9042
 k-point 20 :   0.1538 0.1538-0.0000  plane waves:    8947
 k-point 21 :   0.2308 0.1538-0.0000  plane waves:    8921
 k-point 22 :   0.3077 0.1538-0.0000  plane waves:    8909
 k-point 23 :   0.3846 0.1538-0.0000  plane waves:    8867
 k-point 24 :   0.4615 0.1538-0.0000  plane waves:    8862
 k-point 25 :  -0.4615 0.1538-0.0000  plane waves:    8902
 k-point 26 :  -0.3846 0.1538 0.0000  plane waves:    8912
 k-point 27 :  -0.3077 0.1538 0.0000  plane waves:    8951
 k-point 28 :  -0.2308 0.1538-0.0000  plane waves:    8989
 k-point 29 :  -0.1538 0.1538-0.0000  plane waves:    9004
 k-point 30 :   0.2308 0.2308 0.0000  plane waves:    8920
 k-point 31 :   0.3077 0.2308-0.0000  plane waves:    8883
 k-point 32 :   0.3846 0.2308-0.0000  plane waves:    8897
 k-point 33 :   0.4615 0.2308-0.0000  plane waves:    8867
 k-point 34 :  -0.4615 0.2308-0.0000  plane waves:    8913
 k-point 35 :  -0.3846 0.2308-0.0000  plane waves:    8933
 k-point 36 :  -0.3077 0.2308 0.0000  plane waves:    8943
 k-point 37 :  -0.2308 0.2308-0.0000  plane waves:    8966
 k-point 38 :   0.3077 0.3077 0.0000  plane waves:    8920
 k-point 39 :   0.3846 0.3077-0.0000  plane waves:    8913
 k-point 40 :   0.4615 0.3077-0.0000  plane waves:    8881
 k-point 41 :  -0.4615 0.3077-0.0000  plane waves:    8903
 k-point 42 :  -0.3846 0.3077-0.0000  plane waves:    8918
 k-point 43 :  -0.3077 0.3077-0.0000  plane waves:    8928
 k-point 44 :   0.3846 0.3846-0.0000  plane waves:    8908
 k-point 45 :   0.4615 0.3846-0.0000  plane waves:    8869
 k-point 46 :  -0.4615 0.3846 0.0000  plane waves:    8872
 k-point 47 :  -0.3846 0.3846 0.0000  plane waves:    8873
 k-point 48 :   0.4615 0.4615 0.0000  plane waves:    8848
 k-point 49 :  -0.4615 0.4615-0.0000  plane waves:    8880

 maximum and minimum number of plane-waves per node :      2277     2191

 maximum number of plane-waves:      9059
 maximum index in each direction: 
   IXMAX=    6   IYMAX=    5   IZMAX=   79
   IXMIN=   -6   IYMIN=   -6   IZMIN=  -79

 WARNING: aliasing errors must be expected set NGX to  26 to avoid them
 NGY is ok and might be reduce to  24
 NGZ is ok and might be reduce to 318
 aliasing errors are usually negligible using standard VASP settings
 and one can safely disregard these warnings

 parallel 3D FFT for wavefunctions:
    minimum data exchange during FFTs selected (reduces bandwidth)
 parallel 3D FFT for charge:
    minimum data exchange during FFTs selected (reduces bandwidth)


 total amount of memory used by VASP on root node   200235. kBytes
========================================================================

   base      :      30000. kBytes
   nonl-proj :      35773. kBytes
   fftplans  :      55174. kBytes
   grid      :      22118. kBytes
   one-center:         56. kBytes
   wavefun   :      57114. kBytes
 
     INWAV:  cpu time    0.00: real time    0.00
 Broyden mixing: mesh for mixing (old mesh)
   NGX = 11   NGY = 11   NGZ =159
  (NGX  = 48   NGY  = 48   NGZ  =640)
  gives a total of  19239 points

 initial charge density was supplied:
 charge density of overlapping atoms calculated
 number of electron      95.0000000 magnetization 
 keeping initial charge density in first step


--------------------------------------------------------------------------------------------------------


 Maximum index for augmentation-charges        23031 (set IRDMAX)


--------------------------------------------------------------------------------------------------------


 First call to EWALD:  gamma=   0.256
 Maximum number of real-space cells 7x 7x 1
 Maximum number of reciprocal cells 1x 1x14

 FEWALD executed in parallel
    FEWALD:  cpu time    0.00: real time    0.00


----------------------------------------- Iteration    1(   1)  ---------------------------------------


    POTLOK:  cpu time    0.11: real time    0.11
    SETDIJ:  cpu time    0.10: real time    0.10
     EDDAV:  cpu time    9.35: real time    9.37
       DOS:  cpu time    0.00: real time    0.00
    --------------------------------------------
      LOOP:  cpu time    9.56: real time    9.59

 eigenvalue-minimisations  :  6108
 total energy-change (2. order) : 0.4708547E+03  (-0.4138227E+04)
 number of electron      95.0000000 magnetization 
 augmentation part       95.0000000 magnetization 

 Free energy of the ion-electron system (eV)
  ---------------------------------------------------
  alpha Z        PSCENC =       122.03403634
  Ewald energy   TEWEN  =     14795.10253913
  -Hartree energ DENC   =    -19544.68169498
  -exchange      EXHF   =         0.00000000
  -V(xc)+E(xc)   XCENC  =      -419.62278381
  PAW double counting   =      4235.41334458    -3509.29226066
  entropy T*S    EENTRO =        -0.00461808
  eigenvalues    EBANDS =       295.54642634
  atomic energy  EATOM  =      4496.35971583
  ---------------------------------------------------
  free energy    TOTEN  =       470.85470468 eV

  energy without entropy =      470.85932276  energy(sigma->0) =      470.85701372


--------------------------------------------------------------------------------------------------------




----------------------------------------- Iteration    1(   2)  ---------------------------------------


     EDDAV:  cpu time   11.14: real time   11.16
       DOS:  cpu time    0.00: real time    0.00
    --------------------------------------------
      LOOP:  cpu time   11.15: real time   11.16

 eigenvalue-minimisations  :  7908
 total energy-change (2. order) :-0.5638545E+03  (-0.5348961E+03)
 number of electron      95.0000000 magnetization 
 augmentation part       95.0000000 magnetization 

 Free energy of the ion-electron system (eV)
  ---------------------------------------------------
  alpha Z        PSCENC =       122.03403634
  Ewald energy   TEWEN  =     14795.10253913
  -Hartree energ DENC   =    -19544.68169498
  -exchange      EXHF   =         0.00000000
  -V(xc)+E(xc)   XCENC  =      -419.62278381
  PAW double counting   =      4235.41334458    -3509.29226066
  entropy T*S    EENTRO =        -0.00620871
  eigenvalues    EBANDS =      -268.30646230
  atomic energy  EATOM  =      4496.35971583
  ---------------------------------------------------
  free energy    TOTEN  =       -92.99977459 eV

  energy without entropy =      -92.99356588  energy(sigma->0) =      -92.99667024


--------------------------------------------------------------------------------------------------------




----------------------------------------- Iteration    1(   3)  ---------------------------------------


     EDDAV:  cpu time   10.22: real time   10.23
       DOS:  cpu time    0.00: real time    0.00
    --------------------------------------------
      LOOP:  cpu time   10.23: real time   10.24

 eigenvalue-minimisations  :  7090
 total energy-change (2. order) :-0.5441908E+02  (-0.5410382E+02)
 number of electron      95.0000000 magnetization 
 augmentation part       95.0000000 magnetization 

 Free energy of the ion-electron system (eV)
  ---------------------------------------------------
  alpha Z        PSCENC =       122.03403634
  Ewald energy   TEWEN  =     14795.10253913
  -Hartree energ DENC   =    -19544.68169498
  -exchange      EXHF   =         0.00000000
  -V(xc)+E(xc)   XCENC  =      -419.62278381
  PAW double counting   =      4235.41334458    -3509.29226066
  entropy T*S    EENTRO =        -0.00299568
  eigenvalues    EBANDS =      -322.72875344
  atomic energy  EATOM  =      4496.35971583
  ---------------------------------------------------
  free energy    TOTEN  =      -147.41885270 eV

  energy without entropy =     -147.41585703  energy(sigma->0) =     -147.41735486


--------------------------------------------------------------------------------------------------------




----------------------------------------- Iteration    1(   4)  ---------------------------------------


     EDDAV:  cpu time   10.43: real time   10.45
       DOS:  cpu time    0.00: real time    0.00
    --------------------------------------------
      LOOP:  cpu time   10.43: real time   10.45

 eigenvalue-minimisations  :  7168
 total energy-change (2. order) :-0.7093490E+00  (-0.7079930E+00)
 number of electron      95.0000000 magnetization 
 augmentation part       95.0000000 magnetization 

 Free energy of the ion-electron system (eV)
  ---------------------------------------------------
  alpha Z        PSCENC =       122.03403634
  Ewald energy   TEWEN  =     14795.10253913
  -Hartree energ DENC   =    -19544.68169498
  -exchange      EXHF   =         0.00000000
  -V(xc)+E(xc)   XCENC  =      -419.62278381
  PAW double counting   =      4235.41334458    -3509.29226066
  entropy T*S    EENTRO =        -0.00269100
  eigenvalues    EBANDS =      -323.43840708
  atomic energy  EATOM  =      4496.35971583
  ---------------------------------------------------
  free energy    TOTEN  =      -148.12820166 eV

  energy without entropy =     -148.12551066  energy(sigma->0) =     -148.12685616


--------------------------------------------------------------------------------------------------------




----------------------------------------- Iteration    1(   5)  ---------------------------------------


     EDDAV:  cpu time   10.33: real time   10.35
       DOS:  cpu time    0.00: real time    0.00
    CHARGE:  cpu time    0.70: real time    0.70
    MIXING:  cpu time    0.00: real time    0.00
    --------------------------------------------
      LOOP:  cpu time   11.05: real time   11.06

 eigenvalue-minimisations  :  7152
 total energy-change (2. order) :-0.1082153E-01  (-0.1081596E-01)
 number of electron      95.0000001 magnetization 
 augmentation part        6.9242808 magnetization 

 Broyden mixing:
  rms(total) = 0.21912E+01    rms(broyden)= 0.21907E+01
  rms(prec ) = 0.22452E+01
  weight for this iteration     100.00

 Free energy of the ion-electron system (eV)
  ---------------------------------------------------
  alpha Z        PSCENC =       122.03403634
  Ewald energy   TEWEN  =     14795.10253913
  -Hartree energ DENC   =    -19544.68169498
  -exchange      EXHF   =         0.00000000
  -V(xc)+E(xc)   XCENC  =      -419.62278381
  PAW double counting   =      4235.41334458    -3509.29226066
  entropy T*S    EENTRO =        -0.00268003
  eigenvalues    EBANDS =      -323.44923958
  atomic energy  EATOM  =      4496.35971583
  ---------------------------------------------------
  free energy    TOTEN  =      -148.13902319 eV

  energy without entropy =     -148.13634317  energy(sigma->0) =     -148.13768318


--------------------------------------------------------------------------------------------------------




----------------------------------------- Iteration    1(   6)  ---------------------------------------


    POTLOK:  cpu time    0.10: real time    0.10
    SETDIJ:  cpu time    0.10: real time    0.10
     EDDAV:  cpu time   10.46: real time   10.47
       DOS:  cpu time    0.00: real time    0.00
    CHARGE:  cpu time    0.71: real time    0.71
    MIXING:  cpu time    0.01: real time    0.01
    --------------------------------------------
      LOOP:  cpu time   11.38: real time   11.40

 eigenvalue-minimisations  :  7002
 total energy-change (2. order) : 0.1439557E+02  (-0.8265818E+01)
 number of electron      95.0000001 magnetization 
 augmentation part        5.5935888 magnetization 

 Broyden mixing:
  rms(total) = 0.74346E+00    rms(broyden)= 0.74253E+00
  rms(prec ) = 0.74995E+00
  weight for this iteration     100.00

 eigenvalues of (default mixing * dielectric matrix)
  average eigenvalue GAMMA=   0.8398
  0.8398

 Free energy of the ion-electron system (eV)
  ---------------------------------------------------
  alpha Z        PSCENC =       122.03403634
  Ewald energy   TEWEN  =     14795.10253913
  -Hartree energ DENC   =    -19717.01972688
  -exchange      EXHF   =         0.00000000
  -V(xc)+E(xc)   XCENC  =      -407.46618802
  PAW double counting   =      5005.20490564    -4282.19288414
  entropy T*S    EENTRO =        -0.00613873
  eigenvalues    EBANDS =      -145.75970929
  atomic energy  EATOM  =      4496.35971583
  ---------------------------------------------------
  free energy    TOTEN  =      -133.74345012 eV

  energy without entropy =     -133.73731139  energy(sigma->0) =     -133.74038075


--------------------------------------------------------------------------------------------------------




----------------------------------------- Iteration    1(   7)  ---------------------------------------


    POTLOK:  cpu time    0.11: real time    0.11
    SETDIJ:  cpu time    0.11: real time    0.11
     EDDAV:  cpu time    9.61: real time    9.62
       DOS:  cpu time    0.00: real time    0.00
    CHARGE:  cpu time    0.68: real time    0.68
    MIXING:  cpu time    0.00: real time    0.00
    --------------------------------------------
      LOOP:  cpu time   10.51: real time   10.52

 eigenvalue-minimisations  :  6736
 total energy-change (2. order) : 0.1078818E+00  (-0.1688955E+00)
 number of electron      95.0000001 magnetization 
 augmentation part        5.6322449 magnetization 

 Broyden mixing:
  rms(total) = 0.45494E+00    rms(broyden)= 0.45493E+00
  rms(prec ) = 0.45978E+00
  weight for this iteration     100.00

 eigenvalues of (default mixing * dielectric matrix)
  average eigenvalue GAMMA=   1.6429
  0.9757  2.3101

 Free energy of the ion-electron system (eV)
  ---------------------------------------------------
  alpha Z        PSCENC =       122.03403634
  Ewald energy   TEWEN  =     14795.10253913
  -Hartree energ DENC   =    -19714.81620613
  -exchange      EXHF   =         0.00000000
  -V(xc)+E(xc)   XCENC  =      -407.12318722
  PAW double counting   =      5271.14726640    -4547.70326666
  entropy T*S    EENTRO =        -0.00530997
  eigenvalues    EBANDS =      -148.63115609
  atomic energy  EATOM  =      4496.35971583
  ---------------------------------------------------
  free energy    TOTEN  =      -133.63556837 eV

  energy without entropy =     -133.63025840  energy(sigma->0) =     -133.63291338


--------------------------------------------------------------------------------------------------------




----------------------------------------- Iteration    1(   8)  ---------------------------------------


    POTLOK:  cpu time    0.10: real time    0.10
    SETDIJ:  cpu time    0.10: real time    0.10
     EDDAV:  cpu time    9.78: real time    9.79
       DOS:  cpu time    0.00: real time    0.00
    CHARGE:  cpu time    0.68: real time    0.69
    MIXING:  cpu time    0.00: real time    0.00
    --------------------------------------------
      LOOP:  cpu time   10.67: real time   10.68

 eigenvalue-minimisations  :  7010
 total energy-change (2. order) : 0.9564144E-01  (-0.4765076E-01)
 number of electron      95.0000001 magnetization 
 augmentation part        5.6832068 magnetization 

 Broyden mixing:
  rms(total) = 0.81928E-01    rms(broyden)= 0.81879E-01
  rms(prec ) = 0.90304E-01
  weight for this iteration     100.00

 eigenvalues of (default mixing * dielectric matrix)
  average eigenvalue GAMMA=   1.3843
  2.4355  0.8892  0.8283

 Free energy of the ion-electron system (eV)
  ---------------------------------------------------
  alpha Z        PSCENC =       122.03403634
  Ewald energy   TEWEN  =     14795.10253913
  -Hartree energ DENC   =    -19719.60943342
  -exchange      EXHF   =         0.00000000
  -V(xc)+E(xc)   XCENC  =      -405.71322136
  PAW double counting   =      5734.65615150    -5010.88127871
  entropy T*S    EENTRO =        -0.00502160
  eigenvalues    EBANDS =      -145.48341462
  atomic energy  EATOM  =      4496.35971583
  ---------------------------------------------------
  free energy    TOTEN  =      -133.53992692 eV

  energy without entropy =     -133.53490532  energy(sigma->0) =     -133.53741612


--------------------------------------------------------------------------------------------------------




----------------------------------------- Iteration    1(   9)  ---------------------------------------


    POTLOK:  cpu time    0.10: real time    0.10
    SETDIJ:  cpu time    0.10: real time    0.10
     EDDAV:  cpu time    9.78: real time    9.79
       DOS:  cpu time    0.00: real time    0.00
    CHARGE:  cpu time    0.68: real time    0.68
    MIXING:  cpu time    0.00: real time    0.00
    --------------------------------------------
      LOOP:  cpu time   10.67: real time   10.69

 eigenvalue-minimisations  :  6848
 total energy-change (2. order) : 0.1622059E-01  (-0.7145220E-02)
 number of electron      95.0000001 magnetization 
 augmentation part        5.6616033 magnetization 

 Broyden mixing:
  rms(total) = 0.47958E-01    rms(broyden)= 0.47956E-01
  rms(prec ) = 0.48933E-01
  weight for this iteration     100.00

 eigenvalues of (default mixing * dielectric matrix)
  average eigenvalue GAMMA=   1.4818
  2.4625  0.9698  0.9698  1.5249

 Free energy of the ion-electron system (eV)
  ---------------------------------------------------
  alpha Z        PSCENC =       122.03403634
  Ewald energy   TEWEN  =     14795.10253913
  -Hartree energ DENC   =    -19723.50760854
  -exchange      EXHF   =         0.00000000
  -V(xc)+E(xc)   XCENC  =      -405.35449605
  PAW double counting   =      5752.30123811    -5028.57651310
  entropy T*S    EENTRO =        -0.00529375
  eigenvalues    EBANDS =      -141.87732431
  atomic energy  EATOM  =      4496.35971583
  ---------------------------------------------------
  free energy    TOTEN  =      -133.52370633 eV

  energy without entropy =     -133.51841259  energy(sigma->0) =     -133.52105946


--------------------------------------------------------------------------------------------------------




----------------------------------------- Iteration    1(  10)  ---------------------------------------


    POTLOK:  cpu time    0.10: real time    0.10
    SETDIJ:  cpu time    0.11: real time    0.11
     EDDAV:  cpu time    9.93: real time    9.95
       DOS:  cpu time    0.00: real time    0.00
    CHARGE:  cpu time    0.68: real time    0.68
    MIXING:  cpu time    0.00: real time    0.00
    --------------------------------------------
      LOOP:  cpu time   10.84: real time   10.85

 eigenvalue-minimisations  :  6836
 total energy-change (2. order) : 0.3788460E-03  (-0.3879160E-02)
 number of electron      95.0000001 magnetization 
 augmentation part        5.6442316 magnetization 

 Broyden mixing:
  rms(total) = 0.24111E-01    rms(broyden)= 0.24091E-01
  rms(prec ) = 0.24650E-01
  weight for this iteration     100.00

 eigenvalues of (default mixing * dielectric matrix)
  average eigenvalue GAMMA=   1.3144
  2.5253  1.8343  0.9111  0.9111  0.3902

 Free energy of the ion-electron system (eV)
  ---------------------------------------------------
  alpha Z        PSCENC =       122.03403634
  Ewald energy   TEWEN  =     14795.10253913
  -Hartree energ DENC   =    -19725.15893288
  -exchange      EXHF   =         0.00000000
  -V(xc)+E(xc)   XCENC  =      -405.19049417
  PAW double counting   =      5738.73478520    -5015.04045073
  entropy T*S    EENTRO =        -0.00534909
  eigenvalues    EBANDS =      -140.35917711
  atomic energy  EATOM  =      4496.35971583
  ---------------------------------------------------
  free energy    TOTEN  =      -133.52332749 eV

  energy without entropy =     -133.51797840  energy(sigma->0) =     -133.52065294


--------------------------------------------------------------------------------------------------------




----------------------------------------- Iteration    1(  11)  ---------------------------------------


    POTLOK:  cpu time    0.10: real time    0.10
    SETDIJ:  cpu time    0.10: real time    0.10
     EDDAV:  cpu time   10.11: real time   10.13
       DOS:  cpu time    0.00: real time    0.00
    CHARGE:  cpu time    0.69: real time    0.69
    MIXING:  cpu time    0.00: real time    0.00
    --------------------------------------------
      LOOP:  cpu time   11.01: real time   11.03

 eigenvalue-minimisations  :  6920
 total energy-change (2. order) :-0.5840205E-03  (-0.3046843E-03)
 number of electron      95.0000001 magnetization 
 augmentation part        5.6452120 magnetization 

 Broyden mixing:
  rms(total) = 0.17361E-01    rms(broyden)= 0.17361E-01
  rms(prec ) = 0.17669E-01
  weight for this iteration     100.00

 eigenvalues of (default mixing * dielectric matrix)
  average eigenvalue GAMMA=   1.4160
  2.7616  2.2417  1.0005  0.9012  0.9012  0.6897

 Free energy of the ion-electron system (eV)
  ---------------------------------------------------
  alpha Z        PSCENC =       122.03403634
  Ewald energy   TEWEN  =     14795.10253913
  -Hartree energ DENC   =    -19725.22923999
  -exchange      EXHF   =         0.00000000
  -V(xc)+E(xc)   XCENC  =      -405.14171888
  PAW double counting   =      5719.99728102    -4996.30804421
  entropy T*S    EENTRO =        -0.00532985
  eigenvalues    EBANDS =      -140.33315089
  atomic energy  EATOM  =      4496.35971583
  ---------------------------------------------------
  free energy    TOTEN  =      -133.52391151 eV

  energy without entropy =     -133.51858166  energy(sigma->0) =     -133.52124658


--------------------------------------------------------------------------------------------------------




----------------------------------------- Iteration    1(  12)  ---------------------------------------


    POTLOK:  cpu time    0.10: real time    0.10
    SETDIJ:  cpu time    0.10: real time    0.10
     EDDAV:  cpu time   12.29: real time   12.31
       DOS:  cpu time    0.00: real time    0.00
    CHARGE:  cpu time    0.69: real time    0.69
    MIXING:  cpu time    0.00: real time    0.00
    --------------------------------------------
      LOOP:  cpu time   13.19: real time   13.21

 eigenvalue-minimisations  :  8896
 total energy-change (2. order) : 0.1034017E-03  (-0.2223437E-03)
 number of electron      95.0000001 magnetization 
 augmentation part        5.6442678 magnetization 

 Broyden mixing:
  rms(total) = 0.69255E-02    rms(broyden)= 0.69232E-02
  rms(prec ) = 0.71191E-02
  weight for this iteration     100.00

 eigenvalues of (default mixing * dielectric matrix)
  average eigenvalue GAMMA=   1.4018
  2.9282  2.4980  0.9504  0.9504  0.9065  0.9065  0.6727

 Free energy of the ion-electron system (eV)
  ---------------------------------------------------
  alpha Z        PSCENC =       122.03403634
  Ewald energy   TEWEN  =     14795.10253913
  -Hartree energ DENC   =    -19725.30348195
  -exchange      EXHF   =         0.00000000
  -V(xc)+E(xc)   XCENC  =      -405.09728596
  PAW double counting   =      5699.56160739    -4975.88659735
  entropy T*S    EENTRO =        -0.00528849
  eigenvalues    EBANDS =      -140.28905304
  atomic energy  EATOM  =      4496.35971583
  ---------------------------------------------------
  free energy    TOTEN  =      -133.52380811 eV

  energy without entropy =     -133.51851961  energy(sigma->0) =     -133.52116386


--------------------------------------------------------------------------------------------------------




----------------------------------------- Iteration    1(  13)  ---------------------------------------


    POTLOK:  cpu time    0.10: real time    0.10
    SETDIJ:  cpu time    0.10: real time    0.10
     EDDAV:  cpu time   10.12: real time   10.14
       DOS:  cpu time    0.00: real time    0.00
    CHARGE:  cpu time    0.70: real time    0.70
    MIXING:  cpu time    0.00: real time    0.00
    --------------------------------------------
      LOOP:  cpu time   11.03: real time   11.05

 eigenvalue-minimisations  :  6890
 total energy-change (2. order) : 0.1369171E-04  (-0.1229944E-03)
 number of electron      95.0000001 magnetization 
 augmentation part        5.6475044 magnetization 

 Broyden mixing:
  rms(total) = 0.37755E-02    rms(broyden)= 0.37719E-02
  rms(prec ) = 0.38991E-02
  weight for this iteration     100.00

 eigenvalues of (default mixing * dielectric matrix)
  average eigenvalue GAMMA=   1.3471
  2.9542  2.5238  0.9466  0.9466  0.9832  0.9832  0.7198  0.7198

 Free energy of the ion-electron system (eV)
  ---------------------------------------------------
  alpha Z        PSCENC =       122.03403634
  Ewald energy   TEWEN  =     14795.10253913
  -Hartree energ DENC   =    -19724.84558728
  -exchange      EXHF   =         0.00000000
  -V(xc)+E(xc)   XCENC  =      -405.12166720
  PAW double counting   =      5691.28304071    -4967.60396699
  entropy T*S    EENTRO =        -0.00527269
  eigenvalues    EBANDS =      -140.72663227
  atomic energy  EATOM  =      4496.35971583
  ---------------------------------------------------
  free energy    TOTEN  =      -133.52379441 eV

  energy without entropy =     -133.51852173  energy(sigma->0) =     -133.52115807


--------------------------------------------------------------------------------------------------------




----------------------------------------- Iteration    1(  14)  ---------------------------------------


    POTLOK:  cpu time    0.10: real time    0.10
    SETDIJ:  cpu time    0.11: real time    0.11
     EDDAV:  cpu time   10.22: real time   10.24
       DOS:  cpu time    0.00: real time    0.00
    CHARGE:  cpu time    0.69: real time    0.69
    MIXING:  cpu time    0.01: real time    0.01
    --------------------------------------------
      LOOP:  cpu time   11.13: real time   11.15

 eigenvalue-minimisations  :  6988
 total energy-change (2. order) : 0.2338998E-04  (-0.1071647E-04)
 number of electron      95.0000001 magnetization 
 augmentation part        5.6479829 magnetization 

 Broyden mixing:
  rms(total) = 0.20909E-02    rms(broyden)= 0.20905E-02
  rms(prec ) = 0.22063E-02
  weight for this iteration     100.00

 eigenvalues of (default mixing * dielectric matrix)
  average eigenvalue GAMMA=   1.4133
  3.0071  2.5831  1.5956  1.0360  1.0360  1.0309  0.8832  0.8832  0.6641

 Free energy of the ion-electron system (eV)
  ---------------------------------------------------
  alpha Z        PSCENC =       122.03403634
  Ewald energy   TEWEN  =     14795.10253913
  -Hartree energ DENC   =    -19724.76842513
  -exchange      EXHF   =         0.00000000
  -V(xc)+E(xc)   XCENC  =      -405.12551350
  PAW double counting   =      5690.45818413    -4966.77801429
  entropy T*S    EENTRO =        -0.00527479
  eigenvalues    EBANDS =      -140.80101875
  atomic energy  EATOM  =      4496.35971583
  ---------------------------------------------------
  free energy    TOTEN  =      -133.52377102 eV

  energy without entropy =     -133.51849623  energy(sigma->0) =     -133.52113363


--------------------------------------------------------------------------------------------------------




----------------------------------------- Iteration    1(  15)  ---------------------------------------


    POTLOK:  cpu time    0.10: real time    0.10
    SETDIJ:  cpu time    0.10: real time    0.10
     EDDAV:  cpu time    9.79: real time    9.81
       DOS:  cpu time    0.00: real time    0.00
    CHARGE:  cpu time    0.70: real time    0.70
    MIXING:  cpu time    0.00: real time    0.00
    --------------------------------------------
      LOOP:  cpu time   10.70: real time   10.72

 eigenvalue-minimisations  :  6314
 total energy-change (2. order) : 0.1181649E-04  (-0.3895877E-05)
 number of electron      95.0000001 magnetization 
 augmentation part        5.6478024 magnetization 

 Broyden mixing:
  rms(total) = 0.87678E-03    rms(broyden)= 0.87639E-03
  rms(prec ) = 0.98105E-03
  weight for this iteration     100.00

 eigenvalues of (default mixing * dielectric matrix)
  average eigenvalue GAMMA=   1.3951
  2.9352  2.4021  2.4021  0.9407  0.9407  0.9846  0.9846  0.6770  0.8419  0.8419

 Free energy of the ion-electron system (eV)
  ---------------------------------------------------
  alpha Z        PSCENC =       122.03403634
  Ewald energy   TEWEN  =     14795.10253913
  -Hartree energ DENC   =    -19724.73486352
  -exchange      EXHF   =         0.00000000
  -V(xc)+E(xc)   XCENC  =      -405.12546788
  PAW double counting   =      5690.23131075    -4966.55064887
  entropy T*S    EENTRO =        -0.00527358
  eigenvalues    EBANDS =      -140.83510740
  atomic energy  EATOM  =      4496.35971583
  ---------------------------------------------------
  free energy    TOTEN  =      -133.52375921 eV

  energy without entropy =     -133.51848563  energy(sigma->0) =     -133.52112242


--------------------------------------------------------------------------------------------------------




----------------------------------------- Iteration    1(  16)  ---------------------------------------


    POTLOK:  cpu time    0.10: real time    0.10
    SETDIJ:  cpu time    0.10: real time    0.10
     EDDAV:  cpu time    7.85: real time    7.86
       DOS:  cpu time    0.00: real time    0.00
    --------------------------------------------
      LOOP:  cpu time    8.06: real time    8.07

 eigenvalue-minimisations  :  4582
 total energy-change (2. order) : 0.4435340E-05  (-0.1623316E-05)
 number of electron      95.0000001 magnetization 
 augmentation part        5.6478024 magnetization 

 Free energy of the ion-electron system (eV)
  ---------------------------------------------------
  alpha Z        PSCENC =       122.03403634
  Ewald energy   TEWEN  =     14795.10253913
  -Hartree energ DENC   =    -19724.74948053
  -exchange      EXHF   =         0.00000000
  -V(xc)+E(xc)   XCENC  =      -405.12328794
  PAW double counting   =      5690.86183953    -4967.18116750
  entropy T*S    EENTRO =        -0.00527342
  eigenvalues    EBANDS =      -140.82267621
  atomic energy  EATOM  =      4496.35971583
  ---------------------------------------------------
  free energy    TOTEN  =      -133.52375477 eV

  energy without entropy =     -133.51848135  energy(sigma->0) =     -133.52111806


--------------------------------------------------------------------------------------------------------




 average (electrostatic) potential at core
  the test charge radii are     0.7215  1.0714  1.0406
  (the norm of the test charge is              1.0000)
       1 -70.0532       2 -70.0428       3 -70.0883       4 -70.1734       5 -70.0432
       6 -70.0413       7 -70.0613       8 -70.0743       9 -70.1763      10 -35.8739
      11 -35.6750      12 -35.7002      13 -35.8731      14 -35.7120      15 -35.6782
      16 -35.6749      17 -35.6846      18 -35.7131      19 -35.7312      20 -74.5537
      21 -74.4676      22 -74.5792      23 -74.4649      24 -74.4674      25 -74.4649
      26 -74.5791
 
 
 
 E-fermi :   6.2550     XC(G=0): -10.2464     alpha+bet :-12.3803


 k-point     1 :       0.0000    0.0000    0.0000
  band No.  band energies     occupation 
      1     -14.3201      2.00000
      2     -14.2615      2.00000
      3     -14.1574      2.00000
      4     -14.0194      2.00000
      5     -13.8537      2.00000
      6     -13.6799      2.00000
      7     -13.5113      2.00000
      8     -13.3723      2.00000
      9     -13.2672      2.00000
     10      -3.8233      2.00000
     11      -3.4604      2.00000
     12      -2.9876      2.00000
     13      -2.3787      2.00000
     14      -1.7856      2.00000
     15      -1.7698      2.00000
     16      -1.4307      2.00000
     17      -1.3125      2.00000
     18      -0.7559      2.00000
     19      -0.6317      2.00000
     20      -0.0224      2.00000
     21       0.2524      2.00000
     22       0.9855      2.00000
     23       1.0704      2.00000
     24       1.8262      2.00000
     25       2.1481      2.00000
     26       2.2230      2.00000
     27       2.2263      2.00000
     28       2.2556      2.00000
     29       2.2589      2.00000
     30       2.3081      2.00000
     31       2.3113      2.00000
     32       2.3789      2.00000
     33       2.3818      2.00000
     34       2.4643      2.00000
     35       2.4670      2.00000
     36       2.4852      2.00000
     37       2.5510      2.00000
     38       2.5534      2.00000
     39       2.6352      2.00000
     40       2.6371      2.00000
     41       2.7025      2.00000
     42       2.7040      2.00000
     43       2.7603      2.00000
     44       2.7609      2.00000
     45       3.4848      2.00000
     46       4.7376      2.00000
     47       6.0652      2.00000
     48       7.1824      0.00000
     49       7.1967      0.00000
     50       7.9939      0.00000
     51       8.1686      0.00000
     52       9.0558      0.00000
     53       9.1343      0.00000
     54       9.9424      0.00000
     55       9.9518      0.00000
     56      10.3607      0.00000
     57      10.4540      0.00000
     58      10.8635      0.00000
     59      12.1239      0.00000
     60      13.7247      0.00000
     61      14.3653      0.00000
     62      14.4054      0.00000

 k-point     2 :       0.0769    0.0000    0.0000
  band No.  band energies     occupation 
      1     -14.2676      2.00000
      2     -14.2104      2.00000
      3     -14.1089      2.00000
      4     -13.9743      2.00000
      5     -13.8127      2.00000
      6     -13.6436      2.00000
      7     -13.4795      2.00000
      8     -13.3446      2.00000
      9     -13.2425      2.00000
     10      -3.6932      2.00000
     11      -3.3306      2.00000
     12      -2.8586      2.00000
     13      -2.2522      2.00000
     14      -1.6948      2.00000
     15      -1.6751      2.00000
     16      -1.3417      2.00000
     17      -1.2378      2.00000
     18      -0.7029      2.00000
     19      -0.5509      2.00000
     20       0.0245      2.00000
     21       0.2713      2.00000
     22       1.0092      2.00000
     23       1.0548      2.00000
     24       1.7235      2.00000
     25       1.9931      2.00000
     26       2.0211      2.00000
     27       2.0403      2.00000
     28       2.1017      2.00000
     29       2.1812      2.00000
     30       2.1817      2.00000
     31       2.2145      2.00000
     32       2.2674      2.00000
     33       2.2812      2.00000
     34       2.3386      2.00000
     35       2.3503      2.00000
     36       2.4194      2.00000
     37       2.4246      2.00000
     38       2.4937      2.00000
     39       2.5119      2.00000
     40       2.5273      2.00000
     41       2.5471      2.00000
     42       2.5965      2.00000
     43       2.6641      2.00000
     44       2.7216      2.00000
     45       3.6123      2.00000
     46       4.8746      2.00000
     47       6.2307      1.50711
     48       7.4192      0.00000
     49       7.5168      0.00000
     50       8.2078      0.00000
     51       8.4037      0.00000
     52       9.2487      0.00000
     53       9.3424      0.00000
     54      10.1515      0.00000
     55      10.1885      0.00000
     56      10.6259      0.00000
     57      10.7296      0.00000
     58      11.0471      0.00000
     59      12.2177      0.00000
     60      13.7277      0.00000
     61      13.9124      0.00000
     62      14.3097      0.00000

 k-point     3 :       0.1538   -0.0000    0.0000
  band No.  band energies     occupation 
      1     -14.1169      2.00000
      2     -14.0640      2.00000
      3     -13.9703      2.00000
      4     -13.8460      2.00000
      5     -13.6968      2.00000
      6     -13.5414      2.00000
      7     -13.3909      2.00000
      8     -13.2678      2.00000
      9     -13.1737      2.00000
     10      -3.3036      2.00000
     11      -2.9420      2.00000
     12      -2.4725      2.00000
     13      -1.8762      2.00000
     14      -1.4561      2.00000
     15      -1.3947      2.00000
     16      -1.0757      2.00000
     17      -1.0334      2.00000
     18      -0.5589      2.00000
     19      -0.3740      2.00000
     20       0.1540      2.00000
     21       0.2585      2.00000
     22       0.7958      2.00000
     23       1.0300      2.00000
     24       1.3562      2.00000
     25       1.4187      2.00000
     26       1.4619      2.00000
     27       1.5149      2.00000
     28       1.6117      2.00000
     29       1.6222      2.00000
     30       1.8130      2.00000
     31       1.9425      2.00000
     32       2.0635      2.00000
     33       2.0969      2.00000
     34       2.1153      2.00000
     35       2.1510      2.00000
     36       2.2238      2.00000
     37       2.2583      2.00000
     38       2.3115      2.00000
     39       2.3753      2.00000
     40       2.4007      2.00000
     41       2.4871      2.00000
     42       2.5562      2.00000
     43       2.6148      2.00000
     44       2.7687      2.00000
     45       3.9497      2.00000
     46       5.2364      2.00000
     47       6.6343      0.00000
     48       7.9531      0.00000
     49       8.2750      0.00000
     50       8.7724      0.00000
     51       8.9818      0.00000
     52       9.7222      0.00000
     53       9.8485      0.00000
     54      10.6505      0.00000
     55      10.7438      0.00000
     56      11.2388      0.00000
     57      11.3580      0.00000
     58      11.4014      0.00000
     59      11.5167      0.00000
     60      11.7370      0.00000
     61      12.0525      0.00000
     62      12.4724      0.00000

 k-point     4 :       0.2308    0.0000    0.0000
  band No.  band energies     occupation 
      1     -13.8900      2.00000
      2     -13.8441      2.00000
      3     -13.7632      2.00000
      4     -13.6558      2.00000
      5     -13.5268      2.00000
      6     -13.3935      2.00000
      7     -13.2648      2.00000
      8     -13.1603      2.00000
      9     -13.0786      2.00000
     10      -2.6565      2.00000
     11      -2.2968      2.00000
     12      -1.8333      2.00000
     13      -1.2721      2.00000
     14      -1.0993      2.00000
     15      -1.0251      2.00000
     16      -0.7914      2.00000
     17      -0.7048      2.00000
     18      -0.4014      2.00000
     19      -0.3065      2.00000
     20      -0.0359      2.00000
     21       0.1916      2.00000
     22       0.3451      2.00000
     23       0.5670      2.00000
     24       0.6622      2.00000
     25       0.6984      2.00000
     26       0.8469      2.00000
     27       0.8938      2.00000
     28       1.1782      2.00000
     29       1.3793      2.00000
     30       1.6658      2.00000
     31       1.8997      2.00000
     32       1.9044      2.00000
     33       1.9384      2.00000
     34       1.9938      2.00000
     35       2.0048      2.00000
     36       2.0682      2.00000
     37       2.1420      2.00000
     38       2.1579      2.00000
     39       2.2491      2.00000
     40       2.2561      2.00000
     41       2.3376      2.00000
     42       2.4083      2.00000
     43       2.4680      2.00000
     44       3.2772      2.00000
     45       4.4952      2.00000
     46       5.7852      2.00000
     47       7.1778      0.00000
     48       8.4329      0.00000
     49       8.9372      0.00000
     50       9.1116      0.00000
     51       9.1740      0.00000
     52       9.4651      0.00000
     53       9.5647      0.00000
     54       9.7815      0.00000
     55      10.1628      0.00000
     56      10.2977      0.00000
     57      10.5165      0.00000
     58      10.8837      0.00000
     59      11.2907      0.00000
     60      11.4099      0.00000
     61      11.7876      0.00000
     62      12.0194      0.00000

 k-point     5 :       0.3077   -0.0000    0.0000
  band No.  band energies     occupation 
[...]
     45       4.2520      2.00000
     46       4.5604      2.00000
     47       4.9316      2.00000
     48       5.6816      2.00000
     49       5.8742      2.00000
     50       6.6815      0.00000
     51       6.9988      0.00000
     52       7.8462      0.00000
     53       8.1641      0.00000
     54       8.9907      0.00000
     55       9.3675      0.00000
     56       9.6988      0.00000
     57      10.1855      0.00000
     58      10.2604      0.00000
     59      10.5089      0.00000
     60      10.7158      0.00000
     61      10.7714      0.00000
     62      10.9358      0.00000

 k-point    47 :      -0.3846    0.3846    0.0000
  band No.  band energies     occupation 
      1     -13.3845      2.00000
      2     -13.3528      2.00000
      3     -13.3113      2.00000
      4     -13.2524      2.00000
      5     -13.1841      2.00000
      6     -13.1120      2.00000
      7     -13.0455      2.00000
      8     -12.9908      2.00000
      9     -12.9542      2.00000
     10      -1.3283      2.00000
     11      -1.2198      2.00000
     12      -1.0595      2.00000
     13      -1.0294      2.00000
     14      -0.9283      2.00000
     15      -0.8667      2.00000
     16      -0.7870      2.00000
     17      -0.6892      2.00000
     18      -0.6654      2.00000
     19      -0.5762      2.00000
     20      -0.2285      2.00000
     21      -0.0027      2.00000
     22       0.1554      2.00000
     23       0.3652      2.00000
     24       0.5692      2.00000
     25       0.9617      2.00000
     26       0.9713      2.00000
     27       1.2779      2.00000
     28       1.4090      2.00000
     29       1.4910      2.00000
     30       1.5901      2.00000
     31       1.6314      2.00000
     32       1.6794      2.00000
     33       1.6890      2.00000
     34       1.7676      2.00000
     35       1.8169      2.00000
     36       1.8582      2.00000
     37       1.9431      2.00000
     38       1.9537      2.00000
     39       2.0424      2.00000
     40       2.1158      2.00000
     41       2.1642      2.00000
     42       2.7272      2.00000
     43       3.8610      2.00000
     44       4.3082      2.00000
     45       4.6380      2.00000
     46       4.9490      2.00000
     47       5.2504      2.00000
     48       5.8651      2.00000
     49       6.2885      0.65743
     50       6.6909      0.00000
     51       7.3664      0.00000
     52       7.7895      0.00000
     53       8.5238      0.00000
     54       9.0857      0.00000
     55       9.6719      0.00000
     56      10.1592      0.00000
     57      10.3526      0.00000
     58      10.5779      0.00000
     59      10.8209      0.00000
     60      11.0454      0.00000
     61      11.5265      0.00000
     62      11.6055      0.00000

 k-point    48 :       0.4615    0.4615    0.0000
  band No.  band energies     occupation 
      1     -13.1535      2.00000
      2     -13.1371      2.00000
      3     -13.1232      2.00000
      4     -13.0972      2.00000
      5     -13.0651      2.00000
      6     -13.0295      2.00000
      7     -12.9958      2.00000
      8     -12.9680      2.00000
      9     -12.9457      2.00000
     10      -1.6135      2.00000
     11      -1.5030      2.00000
     12      -1.3408      2.00000
     13      -1.1522      2.00000
     14      -1.1432      2.00000
     15      -1.0609      2.00000
     16      -1.0006      2.00000
     17      -0.9472      2.00000
     18      -0.9130      2.00000
     19       0.6825      2.00000
     20       0.7109      2.00000
     21       0.8287      2.00000
     22       0.9160      2.00000
     23       1.0383      2.00000
     24       1.2027      2.00000
     25       1.2140      2.00000
     26       1.3365      2.00000
     27       1.3969      2.00000
     28       1.4567      2.00000
     29       1.5174      2.00000
     30       1.5700      2.00000
     31       1.6902      2.00000
     32       1.7011      2.00000
     33       1.7034      2.00000
     34       1.7377      2.00000
     35       1.8265      2.00000
     36       1.8783      2.00000
     37       1.9491      2.00000
     38       1.9604      2.00000
     39       2.0470      2.00000
     40       2.0669      2.00000
     41       2.4970      2.00000
     42       2.5806      2.00000
     43       3.1175      2.00000
     44       3.2066      2.00000
     45       3.8632      2.00000
     46       4.0401      2.00000
     47       4.7138      2.00000
     48       5.1483      2.00000
     49       5.8980      2.00000
     50       6.2831      0.76993
     51       6.9625      0.00000
     52       7.5031      0.00000
     53       8.0746      0.00000
     54       8.7513      0.00000
     55       9.1873      0.00000
     56       9.4767      0.00000
     57      10.0334      0.00000
     58      10.2317      0.00000
     59      10.4992      0.00000
     60      10.5408      0.00000
     61      10.7757      0.00000
     62      10.8557      0.00000

 k-point    49 :      -0.4615    0.4615   -0.0000
  band No.  band energies     occupation 
      1     -13.1997      2.00000
      2     -13.1801      2.00000
      3     -13.1603      2.00000
      4     -13.1276      2.00000
      5     -13.0884      2.00000
      6     -13.0458      2.00000
      7     -13.0060      2.00000
      8     -12.9732      2.00000
      9     -12.9485      2.00000
     10      -1.6339      2.00000
     11      -1.5229      2.00000
     12      -1.3597      2.00000
     13      -1.1783      2.00000
     14      -1.1692      2.00000
     15      -1.0885      2.00000
     16      -1.0193      2.00000
     17      -0.9628      2.00000
     18      -0.9265      2.00000
     19       0.5003      2.00000
     20       0.6350      2.00000
     21       0.8222      2.00000
     22       0.8439      2.00000
     23       1.0371      2.00000
     24       1.0697      2.00000
     25       1.1901      2.00000
     26       1.2227      2.00000
     27       1.3100      2.00000
     28       1.5201      2.00000
     29       1.5615      2.00000
     30       1.6194      2.00000
     31       1.6246      2.00000
     32       1.6693      2.00000
     33       1.6983      2.00000
     34       1.7893      2.00000
     35       1.8661      2.00000
     36       1.8852      2.00000
     37       1.9743      2.00000
     38       2.0481      2.00000
     39       2.0967      2.00000
     40       2.2935      2.00000
     41       2.4649      2.00000
     42       2.8129      2.00000
     43       3.0646      2.00000
     44       3.2830      2.00000
     45       3.8780      2.00000
     46       4.0881      2.00000
     47       4.6450      2.00000
     48       5.2809      2.00000
     49       5.6776      2.00000
     50       6.4160      0.00005
     51       6.7836      0.00000
     52       7.6462      0.00000
     53       7.8981      0.00000
     54       8.8552      0.00000
     55       9.1274      0.00000
     56      10.0452      0.00000
     57      10.2721      0.00000
     58      10.3524      0.00000
     59      10.7882      0.00000
     60      11.0783      0.00000
     61      11.2848      0.00000
     62      11.3845      0.00000


--------------------------------------------------------------------------------------------------------


 soft charge-density along one line, spin component           1
         0         1         2         3         4         5         6         7         8         9
 total charge-density along one line
 
 pseudopotential strength for first ion, spin component:           1
 12.175   0.000 -14.814   0.000  -0.000   0.000  -0.000   0.000   0.000   0.000   0.000   0.000   0.000   0.000  -0.000   0.000
-14.814   0.000  18.043   0.000   0.000   0.000   0.000   0.000  -0.000   0.000  -0.000   0.000  -0.000   0.000   0.000   0.000
 -0.000   0.000   0.000   0.000  -8.307   0.000  -0.000   0.000  -0.000   0.000   9.944   0.000   0.000   0.000   0.000   0.000
 -0.000   0.000   0.000   0.000  -0.000   0.000  -8.313   0.000   0.000   0.000   0.000   0.000   9.952   0.000  -0.000   0.000
  0.000   0.000  -0.000   0.000  -0.000   0.000   0.000   0.000  -8.307   0.000   0.000   0.000  -0.000   0.000   9.944   0.000
  0.000   0.000  -0.000   0.000   9.944   0.000   0.000   0.000   0.000   0.000 -11.741   0.000  -0.000   0.000  -0.000   0.000
  0.000   0.000  -0.000   0.000   0.000   0.000   9.952   0.000  -0.000   0.000  -0.000   0.000 -11.753   0.000   0.000   0.000
 -0.000   0.000   0.000   0.000   0.000   0.000  -0.000   0.000   9.944   0.000  -0.000   0.000   0.000   0.000 -11.741   0.000
 total augmentation occupancy for first ion, spin component:           1
  2.590   0.357   0.000  -0.000  -0.000  -0.000  -0.000   0.000
  0.357   0.066   0.000   0.000  -0.000  -0.000  -0.000   0.000
  0.000   0.000   2.152   0.000  -0.000   0.255   0.000  -0.000
 -0.000   0.000   0.000   2.146  -0.000   0.000   0.261  -0.000
 -0.000  -0.000  -0.000  -0.000   2.152  -0.000  -0.000   0.255
 -0.000  -0.000   0.255   0.000  -0.000   0.033   0.000  -0.000
 -0.000  -0.000   0.000   0.261  -0.000   0.000   0.034  -0.000
  0.000   0.000  -0.000  -0.000   0.255  -0.000  -0.000   0.033


------------------------ aborting loop because EDIFF is reached ----------------------------------------


    CHARGE:  cpu time    0.70: real time    0.70
    FORLOC:  cpu time    0.03: real time    0.03
    FORNL :  cpu time    6.29: real time    6.29
    STRESS:  cpu time    7.17: real time    7.17
    FORCOR:  cpu time    0.14: real time    0.14
    FORHAR:  cpu time    0.06: real time    0.06
    MIXING:  cpu time    0.00: real time    0.00
    OFIELD:  cpu time    0.00: real time    0.00

  FORCE on cell =-STRESS in cart. coord.  units (eV):
  Direction    XX          YY          ZZ          XY          YZ          ZX
  --------------------------------------------------------------------------------------
  Alpha Z   122.03404   122.03404   122.03404
  Ewald   17250.23170 17243.59054-19698.55765     5.75165  -640.37718   369.72189
  Hartree 18864.31799 18857.13020-17997.21726     6.22474  -639.40798   369.16252
  E(xc)    -387.87795  -387.88602  -387.89803     0.00697    -0.00115     0.00066
  Local  -37250.86920-37237.02712 36558.10041   -11.98735  1279.80472  -738.89577
  n-local   -29.49222   -37.36603   -31.30759    -2.34701     1.57799     2.68343
  augment    53.57023    53.57133    52.79003    -0.00098    -0.01305     0.00755
  Kinetic  1389.45680  1364.10771  1364.06018    -7.34352     0.28112     1.10969
  Fock        0.00000     0.00000     0.00000     0.00000     0.00000     0.00000
  -------------------------------------------------------------------------------------
  Total      -5.28319    -5.19079   -17.99587    -0.08002    -0.24268     0.14011
  in kB     -25.54697   -25.10016   -87.01932    -0.38694    -1.17349     0.67752
  external pressure =      -45.89 kB  Pullay stress =        0.00 kB


 VOLUME and BASIS-vectors are now :
 -----------------------------------------------------------------------------
  energy-cutoff  :      520.00
  volume of cell :      331.34
      direct lattice vectors                 reciprocal lattice vectors
     2.592590006 -1.495275227  0.051895165     0.385651500 -0.000237838 -0.003697005
     0.001348276  2.992885737 -0.051895149     0.192619776  0.334103016  0.003697005
     0.408967606 -0.708352458 42.706849822    -0.000234562  0.000406274  0.023424432

  length of vectors
     2.993336608  2.993335925 42.714681778     0.385669293  0.385669381  0.023429129


 FORCES acting on ions
    electron-ion (+dipol)            ewald-force                    non-local-force                 convergence-correction
 -----------------------------------------------------------------------------------------------
   -.100E+02 0.174E+02 0.100E+04   0.100E+02 -.174E+02 -.100E+04   -.283E-03 0.490E-03 0.689E-01   0.352E-04 -.609E-04 -.335E-02
   -.501E-03 0.868E-03 0.549E-01   0.637E-03 -.110E-02 -.688E-01   0.172E-03 -.298E-03 -.171E-01   -.232E-03 0.402E-03 0.232E-01
   0.100E+02 -.174E+02 -.100E+04   -.100E+02 0.174E+02 0.100E+04   0.730E-04 -.126E-03 -.420E-01   -.417E-05 0.721E-05 0.791E-03
   -.133E+02 0.231E+02 0.133E+04   0.133E+02 -.231E+02 -.133E+04   -.875E-02 0.152E-01 0.862E+00   0.949E-04 -.164E-03 -.957E-02
   -.669E+01 0.116E+02 0.668E+03   0.669E+01 -.116E+02 -.668E+03   0.216E-03 -.375E-03 0.822E-02   -.679E-04 0.118E-03 0.670E-02
   -.335E+01 0.580E+01 0.334E+03   0.335E+01 -.580E+01 -.334E+03   0.168E-03 -.290E-03 -.924E-03   -.175E-03 0.302E-03 0.175E-01
   0.335E+01 -.580E+01 -.334E+03   -.335E+01 0.580E+01 0.334E+03   0.793E-04 -.137E-03 -.236E-01   -.211E-03 0.366E-03 0.210E-01
   0.669E+01 -.116E+02 -.668E+03   -.669E+01 0.116E+02 0.668E+03   -.690E-04 0.120E-03 -.194E-01   -.120E-03 0.208E-03 0.119E-01
   0.133E+02 -.231E+02 -.133E+04   -.133E+02 0.231E+02 0.133E+04   0.858E-02 -.149E-01 -.837E+00   0.643E-04 -.111E-03 -.645E-02
   -.485E+01 0.840E+01 0.483E+03   0.485E+01 -.840E+01 -.483E+03   0.490E-02 -.849E-02 -.111E+00   0.342E-04 -.592E-04 -.341E-02
   -.167E+01 0.290E+01 0.167E+03   0.167E+01 -.290E+01 -.167E+03   0.590E-03 -.102E-02 -.178E-02   -.418E-04 0.724E-04 0.418E-02
   0.167E+01 -.290E+01 -.167E+03   -.167E+01 0.290E+01 0.167E+03   -.605E-03 0.105E-02 0.492E-02   -.574E-04 0.994E-04 0.573E-02
   0.485E+01 -.840E+01 -.483E+03   -.485E+01 0.839E+01 0.483E+03   -.485E-02 0.841E-02 0.111E+00   0.246E-04 -.427E-04 -.246E-02
   -.391E+01 0.677E+01 0.390E+03   0.391E+01 -.677E+01 -.390E+03   0.143E-02 -.248E-02 -.513E-01   0.257E-04 -.445E-04 -.256E-02
   -.279E+01 0.483E+01 0.278E+03   0.279E+01 -.483E+01 -.278E+03   0.689E-03 -.119E-02 -.870E-02   -.551E-05 0.955E-05 0.550E-03
   -.558E+00 0.967E+00 0.557E+02   0.558E+00 -.967E+00 -.557E+02   0.130E-03 -.226E-03 -.102E-03   -.703E-04 0.122E-03 0.702E-02
   0.558E+00 -.966E+00 -.557E+02   -.558E+00 0.966E+00 0.557E+02   -.180E-03 0.312E-03 0.444E-02   -.783E-04 0.136E-03 0.782E-02
   0.279E+01 -.483E+01 -.278E+03   -.279E+01 0.483E+01 0.278E+03   -.619E-03 0.107E-02 0.980E-02   -.205E-04 0.356E-04 0.205E-02
   0.391E+01 -.677E+01 -.390E+03   -.391E+01 0.677E+01 0.390E+03   -.126E-02 0.219E-02 0.436E-01   0.136E-04 -.236E-04 -.136E-02
   -.500E-04 0.866E-04 -.148E-01   -.881E-04 0.153E-03 0.182E-01   0.111E-03 -.193E-03 0.134E-03   0.346E-04 -.600E-04 -.346E-02
   -.521E+01 0.902E+01 0.519E+03   0.519E+01 -.900E+01 -.518E+03   0.136E-01 -.236E-01 -.109E+01   0.464E-04 -.804E-04 -.463E-02
   -.337E+01 0.584E+01 0.336E+03   0.337E+01 -.584E+01 -.337E+03   0.310E-02 -.536E-02 0.340E+00   0.412E-04 -.714E-04 -.411E-02
   -.167E+01 0.289E+01 0.167E+03   0.167E+01 -.289E+01 -.167E+03   -.123E-02 0.213E-02 -.520E-01   0.370E-04 -.641E-04 -.370E-02
   0.521E+01 -.902E+01 -.519E+03   -.519E+01 0.900E+01 0.518E+03   -.137E-01 0.238E-01 0.109E+01   0.371E-04 -.642E-04 -.371E-02
   0.167E+01 -.289E+01 -.167E+03   -.167E+01 0.289E+01 0.167E+03   0.124E-02 -.215E-02 0.521E-01   0.339E-04 -.588E-04 -.339E-02
   0.337E+01 -.584E+01 -.336E+03   -.337E+01 0.584E+01 0.337E+03   -.293E-02 0.507E-02 -.340E+00   0.347E-04 -.601E-04 -.347E-02
 -----------------------------------------------------------------------------------------------
   -.305E-04 0.528E-04 -.534E-01   -.204E-13 -.719E-13 0.341E-12   0.568E-03 -.984E-03 0.517E-03   -.527E-03 0.912E-03 0.528E-01
 
 
 POSITION                                       TOTAL-FORCE (eV/Angst)
 -----------------------------------------------------------------------------------
      1.58516      0.24965     14.89325         0.000115     -0.000199      0.016002
      1.51206      0.37625     22.45512         0.000075     -0.000130     -0.007862
      1.43897      0.50286     30.01591        -0.000306      0.000530     -0.003100
      0.74632      1.70256     12.33987         0.000235     -0.000408      0.016441
      2.42432     -1.20383     17.44891         0.000148     -0.000256      0.002052
      0.67250      1.83042     19.89995         0.000105     -0.000181      0.000352
      2.35163     -1.07792     25.01006         0.000015     -0.000026     -0.011383
      0.59980      1.95634     27.46092        -0.000117      0.000203     -0.007987
      2.27777     -0.94999     32.56948        -0.000390      0.000676     -0.005046
      1.62299      0.18413     11.08532         0.000405     -0.000702      0.002916
      1.54836      0.31338     18.67461         0.000268     -0.000465      0.001064
      1.47577      0.43912     26.23485        -0.000353      0.000612      0.007459
      1.40107      0.56849     33.82434        -0.000353      0.000612     -0.005774
      2.46127     -1.26782     13.66933         0.000608     -0.001053     -0.016834
      0.70906      1.76709     16.12011         0.000390     -0.000676     -0.005064
      2.38789     -1.14073     21.22935         0.000055     -0.000095      0.002863
      0.63624      1.89322     23.68010        -0.000201      0.000348      0.010724
      2.31505     -1.01457     28.78937        -0.000371      0.000642      0.006029
      0.56282      2.02039     31.24089        -0.000372      0.000644     -0.003235
      2.60289     -1.51312      1.15314         0.000007     -0.000013      0.000076
      2.51520     -1.36123      8.52365         0.000381     -0.000660      0.003992
      1.68095      0.08374      5.97512         0.000323     -0.000560      0.019903
      0.84562      1.53057      3.50168         0.000216     -0.000374     -0.005311
      0.50873      2.11408     36.38580        -0.000380      0.000659     -0.003647
      2.17798     -0.77715     41.40768        -0.000194      0.000336      0.005267
      1.34272      0.66956     38.93425        -0.000308      0.000534     -0.019897
 -----------------------------------------------------------------------------------
    total drift:                                0.000011     -0.000019     -0.000141


--------------------------------------------------------------------------------------------------------



  FREE ENERGIE OF THE ION-ELECTRON SYSTEM (eV)
  ---------------------------------------------------
  free  energy   TOTEN  =      -133.52387742 eV

  energy  without entropy=     -133.51862801  energy(sigma->0) =     -133.52125272
 
 d Force = 0.5986908E-05[ 0.439E-05, 0.759E-05]  d Energy = 0.4512412E-05 0.147E-05
 d Force = 0.1760569E-01[ 0.176E-01, 0.176E-01]  d Ewald  = 0.1760569E-01-0.149E-09


--------------------------------------------------------------------------------------------------------


    POTLOK:  cpu time    0.22: real time    0.22


--------------------------------------------------------------------------------------------------------




--------------------------------------------------------------------------------------------------------


  
 reached required accuracy - stopping structural energy minimisation
     LOOP+:  cpu time   62.24: real time   62.31
    4ORBIT:  cpu time    0.00: real time    0.00

 total amount of memory used by VASP on root node   200235. kBytes
========================================================================

   base      :      30000. kBytes
   nonl-proj :      35773. kBytes
   fftplans  :      55174. kBytes
   grid      :      22118. kBytes
   one-center:         56. kBytes
   wavefun   :      57114. kBytes
 
  
  
 General timing and accounting informations for this job:
 ========================================================
  
                  Total CPU time used (sec):      479.144
                            User time (sec):      475.659
                          System time (sec):        3.485
                         Elapsed time (sec):      479.822
  
                   Maximum memory used (kb):      302528.
                   Average memory used (kb):           0.
  
                          Minor page faults:       181481
                          Major page faults:            0
                 Voluntary context switches:          150
