 vasp.5.4.4.18Apr17-6-g9f103f2a35 (build Nov 15 2019 10:10:58) complex          
  
 executed on             LinuxIFC date 2025.01.15  07:39:19
 running on   16 total cores
 distrk:  each k-point on   16 cores,    1 groups
 distr:  one band on NCORES_PER_BAND=   4 cores,    4 groups


--------------------------------------------------------------------------------------------------------


 INCAR:
 POTCAR:   PAW_PBE O 08Apr2002                    
 POTCAR:   PAW_PBE Mg 05Jan2001                   
 POTCAR:   PAW_PBE Al 04Jan2001                   
 POTCAR:   PAW_PBE O 08Apr2002                    
   VRHFIN =O: s2p4                                                              
   LEXCH  = PE                                                                  
   EATOM  =   432.3788 eV,   31.7789 Ry                                         
                                                                                
   TITEL  = PAW_PBE O 08Apr2002                                                 
   LULTRA =        F    use ultrasoft PP ?                                      
   IUNSCR =        0    unscreen: 0-lin 1-nonlin 2-no                           
   RPACOR =     .000    partial core radius                                     
   POMASS =   16.000; ZVAL   =    6.000    mass and valenz                      
   RCORE  =    1.520    outmost cutoff radius                                   
   RWIGS  =    1.550; RWIGS  =     .820    wigner-seitz radius (au A)           
   ENMAX  =  400.000; ENMIN  =  300.000 eV                                      
   ICORE  =        2    local potential                                         
   LCOR   =        T    correct aug charges                                     
   LPAW   =        T    paw PP                                                  
   EAUG   =  605.392                                                            
   DEXC   =     .000                                                            
   RMAX   =    2.264    core radius for proj-oper                               
   RAUG   =    1.300    factor for augmentation sphere                          
   RDEP   =    1.550    radius for radial grids                                 
   QCUT   =   -5.520; QGAM   =   11.041    optimization parameters              
                                                                                
   Description                                                                  
     l     E      TYP  RCUT    TYP  RCUT                                        
     0   .000     23  1.200                                                     
     0  -.700     23  1.200                                                     
     1   .000     23  1.520                                                     
     1   .600     23  1.520                                                     
     2   .000      7  1.500                                                     
  local pseudopotential read in
  atomic valenz-charges read in
  non local Contribution for L=           0  read in
    real space projection operators read in
  non local Contribution for L=           0  read in
    real space projection operators read in
  non local Contribution for L=           1  read in
    real space projection operators read in
  non local Contribution for L=           1  read in
    real space projection operators read in
    PAW grid and wavefunctions read in
 
   number of l-projection  operators is LMAX  =           4
   number of lm-projection operators is LMMAX =           8
 
 POTCAR:   PAW_PBE Mg 05Jan2001                   
   VRHFIN =Mg: s2p0                                                             
   LEXCH  = PE                                                                  
   EATOM  =    23.0029 eV,    1.6907 Ry                                         
                                                                                
   TITEL  = PAW_PBE Mg 05Jan2001                                                
   LULTRA =        F    use ultrasoft PP ?                                      
   IUNSCR =        1    unscreen: 0-lin 1-nonlin 2-no                           
   RPACOR =    2.000    partial core radius                                     
   POMASS =   24.305; ZVAL   =    2.000    mass and valenz                      
   RCORE  =    2.000    outmost cutoff radius                                   
   RWIGS  =    2.880; RWIGS  =    1.524    wigner-seitz radius (au A)           
   ENMAX  =  210.012; ENMIN  =  157.509 eV                                      
   ICORE  =        2    local potential                                         
   LCOR   =        T    correct aug charges                                     
   LPAW   =        T    paw PP                                                  
   EAUG   =  274.554                                                            
   DEXC   =    -.136                                                            
   RMAX   =    3.182    core radius for proj-oper                               
   RAUG   =    1.300    factor for augmentation sphere                          
   RDEP   =    2.025    radius for radial grids                                 
   QCUT   =   -3.929; QGAM   =    7.858    optimization parameters              
                                                                                
   Description                                                                  
     l     E      TYP  RCUT    TYP  RCUT                                        
     0   .000     23  2.000                                                     
     0  2.000     23  2.000                                                     
     1   .000     23  2.000                                                     
     1  2.000     23  2.000                                                     
     2   .000     23  2.000                                                     
  local pseudopotential read in
  partial core-charges read in
  atomic valenz-charges read in
  non local Contribution for L=           0  read in
    real space projection operators read in
  non local Contribution for L=           0  read in
    real space projection operators read in
  non local Contribution for L=           1  read in
    real space projection operators read in
  non local Contribution for L=           1  read in
    real space projection operators read in
    PAW grid and wavefunctions read in
 
   number of l-projection  operators is LMAX  =           4
   number of lm-projection operators is LMMAX =           8
 
 POTCAR:   PAW_PBE Al 04Jan2001                   
   VRHFIN =Al: s2p1                                                             
   LEXCH  = PE                                                                  
   EATOM  =    53.5387 eV,    3.9350 Ry                                         
                                                                                
   TITEL  = PAW_PBE Al 04Jan2001                                                
   LULTRA =        F    use ultrasoft PP ?                                      
   IUNSCR =        1    unscreen: 0-lin 1-nonlin 2-no                           
   RPACOR =    1.500    partial core radius                                     
   POMASS =   26.982; ZVAL   =    3.000    mass and valenz                      
   RCORE  =    1.900    outmost cutoff radius                                   
   RWIGS  =    2.650; RWIGS  =    1.402    wigner-seitz radius (au A)           
   ENMAX  =  240.300; ENMIN  =  180.225 eV                                      
   ICORE  =        2    local potential                                         
   LCOR   =        T    correct aug charges                                     
   LPAW   =        T    paw PP                                                  
   EAUG   =  291.052                                                            
   DEXC   =    -.041                                                            
   RMAX   =    2.974    core radius for proj-oper                               
   RAUG   =    1.300    factor for augmentation sphere                          
   RDEP   =    1.966    radius for radial grids                                 
   QCUT   =   -4.203; QGAM   =    8.405    optimization parameters              
                                                                                
   Description                                                                  
     l     E      TYP  RCUT    TYP  RCUT                                        
     0   .000     23  1.900                                                     
     0   .000     23  1.900                                                     
     1   .000     23  1.900                                                     
     1  1.000     23  1.900                                                     
     2   .000      7  1.900                                                     
  local pseudopotential read in
  partial core-charges read in
  atomic valenz-charges read in
  non local Contribution for L=           0  read in
    real space projection operators read in
  non local Contribution for L=           0  read in
    real space projection operators read in
  non local Contribution for L=           1  read in
    real space projection operators read in
  non local Contribution for L=           1  read in
    real space projection operators read in
    PAW grid and wavefunctions read in
 
   number of l-projection  operators is LMAX  =           4
   number of lm-projection operators is LMMAX =           8
 

 ----------------------------------------------------------------------------- 
|                                                                             |
|  ADVICE TO THIS USER RUNNING 'VASP/VAMP'   (HEAR YOUR MASTER'S VOICE ...):  |
|                                                                             |
|      You have a (more or less) 'large supercell' and for larger cells       |
|      it might be more efficient to use real space projection operators      |
|      So try LREAL= Auto  in the INCAR   file.                               |
|      Mind: If you want to do a very accurate calculations keep the          |
|      reciprocal projection scheme          (i.e. LREAL=.FALSE.)             |
|                                                                             |
 ----------------------------------------------------------------------------- 

 PAW_PBE O 08Apr2002                    :
 energy of atom  1       EATOM= -432.3788
 kinetic energy error for atom=    0.0208 (will be added to EATOM!!)
 PAW_PBE Mg 05Jan2001                   :
 energy of atom  2       EATOM=  -23.0029
 kinetic energy error for atom=    0.0000 (will be added to EATOM!!)
 PAW_PBE Al 04Jan2001                   :
 energy of atom  3       EATOM=  -53.5387
 kinetic energy error for atom=    0.0002 (will be added to EATOM!!)
 
 
 POSCAR: Layer(26)                               
  positions in direct lattice
  velocities in cartesian coordinates
 exchange correlation table for  LEXCH =        8
   RHO(1)=    0.500       N(1)  =     2000
   RHO(2)=  100.500       N(2)  =     4000

 VTST: version 3.2, (02/03/18)

 CHAIN: initializing optimizer
 
 OPT: Using VASP Conjugate-Gradient optimizer
 CHAIN: Read ICHAIN            0
 
 POSCAR: Layer(26)                               
  positions in direct lattice
  velocities in cartesian coordinates
 


--------------------------------------------------------------------------------------------------------


 ion  position               nearest neighbor table
   1  0.477  0.523  0.448-  22 2.03  22 2.03  14 2.10  14 2.20  14 2.20
   2  0.514  0.486  0.554-  15 2.07  15 2.07  15 2.09  16 2.16  16 2.16  16 2.19
   3  0.527  0.473  0.661-  17 2.07  17 2.07  17 2.09  18 2.16  18 2.16  18 2.20
   4  0.542  0.458  0.765-  19 1.96  19 1.96  19 1.96
   5  0.837  0.163  0.483-  14 2.07  14 2.07  14 2.09  11 2.16  11 2.16  11 2.19
   6  0.175  0.825  0.519-  11 2.07  11 2.07  11 2.09  15 2.16  15 2.16  15 2.19
   7  0.852  0.148  0.590-  16 2.07  16 2.07  16 2.09  12 2.16  12 2.16  12 2.20
   8  0.190  0.810  0.626-  12 2.07  12 2.07  12 2.09  17 2.16  17 2.16  17 2.20
   9  0.865  0.135  0.697-  18 2.07  18 2.07  18 2.09  13 2.16  13 2.16  13 2.20
  10  0.203  0.797  0.732-  13 2.06  13 2.06  13 2.07  19 2.20  19 2.20  19 2.24
  11  0.505  0.495  0.502-   6 2.07   6 2.07   6 2.09   5 2.16   5 2.16   5 2.19  14 3.01  15 3.01
                            15 3.01  15 3.01  14 3.01  14 3.01
  12  0.519  0.481  0.609-   8 2.07   8 2.07   8 2.09   7 2.16   7 2.16   7 2.20  17 3.01  16 3.01
                            17 3.01  17 3.01  16 3.01  16 3.01
  13  0.532  0.468  0.716-  10 2.06  10 2.06  10 2.07   9 2.16   9 2.16   9 2.20  18 3.01  18 3.01
                            18 3.01  19 3.04  19 3.04  19 3.04
  14  0.167  0.833  0.467-   5 2.07   5 2.07   5 2.09   1 2.10   1 2.20   1 2.20  22 2.88  11 3.01
                            11 3.01  11 3.01  22 3.45  22 3.45
  15  0.843  0.157  0.538-   2 2.07   2 2.07   2 2.09   6 2.16   6 2.16   6 2.19  11 3.01  11 3.01
                            11 3.01  16 3.01  16 3.01  16 3.01
  16  0.182  0.818  0.573-   7 2.07   7 2.07   7 2.09   2 2.16   2 2.16   2 2.19  12 3.01  15 3.01
                            15 3.01  15 3.01  12 3.01  12 3.01
  17  0.857  0.143  0.645-   3 2.07   3 2.07   3 2.09   8 2.16   8 2.16   8 2.20  12 3.01  18 3.01
                            12 3.01  12 3.01  18 3.01  18 3.01
  18  0.194  0.806  0.680-   9 2.07   9 2.07   9 2.09   3 2.16   3 2.16   3 2.20  17 3.01  13 3.01
                            13 3.01  13 3.01  17 3.01  17 3.01
  19  0.870  0.130  0.752-   4 1.96   4 1.96   4 1.96  10 2.20  10 2.20  10 2.24  13 3.04  13 3.04
                            13 3.04
  20  0.927  0.073  0.235-  25 2.83  25 2.83  25 2.85
  21  0.948  0.052  0.332-  23 2.80  23 2.80  26 2.81  26 2.81  23 2.82  26 2.85
  22  0.960  0.040  0.428-   1 2.03   1 2.03  24 2.69  24 2.81  24 2.81  14 2.88  14 3.45  14 3.45

  23  0.607  0.393  0.300-  25 2.80  25 2.80  21 2.80  21 2.80  25 2.81  21 2.82
  24  0.645  0.355  0.397-  22 2.69  22 2.81  22 2.81  26 2.81  26 2.81  26 2.88
  25  0.269  0.731  0.268-  23 2.80  23 2.80  23 2.81  20 2.83  20 2.83  20 2.85
  26  0.293  0.707  0.364-  24 2.81  24 2.81  21 2.81  21 2.81  21 2.85  24 2.88
 
  LATTYP: Found a base centered monoclinic cell.
 ALAT       =     5.2328582782
 B/A-ratio  =     0.5683425909
 C/A-ratio  =    13.2634916918
 COS(beta)  =    -0.0797902432
  
  Lattice vectors:
  
 A1 = (  -2.5959741503,   1.5223026026,   0.0216319808)
 A2 = (  -0.0203658138,   3.0093305668,   0.0216319763)
 A3 = (   2.8991083346,  -5.0214023511, -69.1633550357)


Analysis of symmetry for initial positions (statically):
=====================================================================
 Subroutine PRICEL returns:
 Original cell was already a primitive cell.
 

 Routine SETGRP: Setting up the symmetry group for a 
 base centered monoclinic supercell.


 Subroutine GETGRP returns: Found  2 space group operations
 (whereof  2 operations were pure point group operations)
 out of a pool of  4 trial point group operations.


The static configuration has the point symmetry C_1h.


Analysis of symmetry for dynamics (positions and initial velocities):
=====================================================================
 Subroutine PRICEL returns:
 Original cell was already a primitive cell.
 

 Routine SETGRP: Setting up the symmetry group for a 
 base centered monoclinic supercell.


 Subroutine GETGRP returns: Found  2 space group operations
 (whereof  2 operations were pure point group operations)
 out of a pool of  4 trial point group operations.


The dynamic configuration has the point symmetry C_1h.


Analysis of constrained symmetry for selective dynamics:
=====================================================================
 Subroutine PRICEL returns:
 Original cell was already a primitive cell.
 

 Routine SETGRP: Setting up the symmetry group for a 
 base centered monoclinic supercell.


 Subroutine GETGRP returns: Found  2 space group operations
 (whereof  2 operations were pure point group operations)
 out of a pool of  4 trial point group operations.


The constrained configuration has the point symmetry C_1h.


 Subroutine INISYM returns: Found  2 space group operations
 (whereof  2 operations are pure point group operations),
 and found     1 'primitive' translations

 
 
 KPOINTS: K-Spacing Value to Generate K-Mesh: 0.02

Automatic generation of k-mesh.
Space group operators:
 irot       det(A)        alpha          n_x          n_y          n_z        tau_x        tau_y        tau_z
    1     1.000000     0.000000     1.000000     0.000000     0.000000     0.000000     0.000000     0.000000
    2    -1.000000   180.000000     0.866025     0.500000    -0.000000     0.000000     0.000000     0.000000
 
 Subroutine IBZKPT returns following result:
 ===========================================
 
 Found     49 irreducible k-points:
 
 Following reciprocal coordinates:
            Coordinates               Weight
  0.000000  0.000000  0.000000      1.000000
  0.076923 -0.000000  0.000000      4.000000
  0.153846 -0.000000 -0.000000      4.000000
  0.230769 -0.000000 -0.000000      4.000000
  0.307692 -0.000000  0.000000      4.000000
  0.384615 -0.000000 -0.000000      4.000000
  0.461538 -0.000000 -0.000000      4.000000
  0.076923  0.076923 -0.000000      2.000000
  0.153846  0.076923 -0.000000      4.000000
  0.230769  0.076923 -0.000000      4.000000
  0.307692  0.076923  0.000000      4.000000
  0.384615  0.076923 -0.000000      4.000000
  0.461538  0.076923  0.000000      4.000000
 -0.461538  0.076923  0.000000      4.000000
 -0.384615  0.076923  0.000000      4.000000
 -0.307692  0.076923  0.000000      4.000000
 -0.230769  0.076923 -0.000000      4.000000
 -0.153846  0.076923  0.000000      4.000000
 -0.076923  0.076923 -0.000000      2.000000
  0.153846  0.153846 -0.000000      2.000000
  0.230769  0.153846 -0.000000      4.000000
  0.307692  0.153846 -0.000000      4.000000
  0.384615  0.153846 -0.000000      4.000000
  0.461538  0.153846 -0.000000      4.000000
 -0.461538  0.153846 -0.000000      4.000000
 -0.384615  0.153846 -0.000000      4.000000
 -0.307692  0.153846  0.000000      4.000000
 -0.230769  0.153846  0.000000      4.000000
 -0.153846  0.153846 -0.000000      2.000000
  0.230769  0.230769 -0.000000      2.000000
  0.307692  0.230769 -0.000000      4.000000
  0.384615  0.230769 -0.000000      4.000000
  0.461538  0.230769 -0.000000      4.000000
 -0.461538  0.230769  0.000000      4.000000
 -0.384615  0.230769  0.000000      4.000000
 -0.307692  0.230769 -0.000000      4.000000
 -0.230769  0.230769 -0.000000      2.000000
  0.307692  0.307692 -0.000000      2.000000
  0.384615  0.307692 -0.000000      4.000000
  0.461538  0.307692 -0.000000      4.000000
 -0.461538  0.307692 -0.000000      4.000000
 -0.384615  0.307692 -0.000000      4.000000
 -0.307692  0.307692 -0.000000      2.000000
  0.384615  0.384615  0.000000      2.000000
  0.461538  0.384615 -0.000000      4.000000
 -0.461538  0.384615 -0.000000      4.000000
 -0.384615  0.384615 -0.000000      2.000000
  0.461538  0.461538 -0.000000      2.000000
 -0.461538  0.461538 -0.000000      2.000000
 
 Following cartesian coordinates:
            Coordinates               Weight
  0.000000  0.000000  0.000000      1.000000
  0.029750  0.000200  0.000120      4.000000
  0.059500  0.000401  0.000241      4.000000
  0.089251  0.000601  0.000361      4.000000
  0.119001  0.000802  0.000481      4.000000
  0.148751  0.001002  0.000601      4.000000
  0.178501  0.001203  0.000722      4.000000
  0.044799  0.025865 -0.000000      2.000000
  0.074549  0.026065  0.000120      4.000000
  0.104299  0.026266  0.000241      4.000000
  0.134050  0.026466  0.000361      4.000000
  0.163800  0.026667  0.000481      4.000000
  0.193550  0.026867  0.000601      4.000000
 -0.163453  0.024461 -0.000842      4.000000
 -0.133702  0.024662 -0.000722      4.000000
 -0.103952  0.024862 -0.000601      4.000000
 -0.074202  0.025063 -0.000481      4.000000
 -0.044452  0.025263 -0.000361      4.000000
 -0.014702  0.025464 -0.000241      2.000000
  0.089598  0.051729 -0.000000      2.000000
  0.119348  0.051930  0.000120      4.000000
  0.149098  0.052130  0.000241      4.000000
  0.178849  0.052331  0.000361      4.000000
  0.208599  0.052531  0.000481      4.000000
 -0.148404  0.050126 -0.000962      4.000000
 -0.118654  0.050326 -0.000842      4.000000
 -0.088903  0.050527 -0.000722      4.000000
 -0.059153  0.050727 -0.000601      4.000000
 -0.029403  0.050928 -0.000481      2.000000
  0.134397  0.077594 -0.000000      2.000000
  0.164147  0.077795  0.000120      4.000000
  0.193897  0.077995  0.000241      4.000000
  0.223648  0.078196  0.000361      4.000000
 -0.133355  0.075790 -0.001083      4.000000
 -0.103605  0.075990 -0.000962      4.000000
 -0.073855  0.076191 -0.000842      4.000000
 -0.044105  0.076391 -0.000722      2.000000
  0.179196  0.103459 -0.000000      2.000000
  0.208946  0.103659  0.000120      4.000000
  0.238696  0.103860  0.000241      4.000000
 -0.118307  0.101454 -0.001203      4.000000
 -0.088556  0.101655 -0.001083      4.000000
 -0.058806  0.101855 -0.000962      2.000000
  0.223995  0.129324 -0.000000      2.000000
  0.253745  0.129524  0.000120      4.000000
 -0.103258  0.127118 -0.001323      4.000000
 -0.073508  0.127319 -0.001203      2.000000
  0.268794  0.155188 -0.000000      2.000000
 -0.088209  0.152783 -0.001443      2.000000
 


--------------------------------------------------------------------------------------------------------




 Dimension of arrays:
   k-points           NKPTS =     49   k-points in BZ     NKDIM =     49   number of bands    NBANDS=     64
   number of dos      NEDOS =    301   number of ions     NIONS =     26
   non local maximal  LDIM  =      4   non local SUM 2l+1 LMDIM =      8
   total plane-waves  NPLWV = 311040
   max r-space proj   IRMAX =      1   max aug-charges    IRDMAX= 196726
   dimension x,y,z NGX =    24 NGY =   24 NGZ =  540
   dimension x,y,z NGXF=    48 NGYF=   48 NGZF= 1080
   support grid    NGXF=    96 NGYF=   96 NGZF= 2160
   ions per type =              10   9   7
   NGX,Y,Z   is equivalent  to a cutoff of  13.26, 13.26, 12.99 a.u.
   NGXF,Y,Z  is equivalent  to a cutoff of  26.52, 26.52, 25.98 a.u.

 SYSTEM =  unknown system                          
 POSCAR =  Layer(26)                               

 Startparameter for this run:
   NWRITE =      2    write-flag & timer
   PREC   = accura    normal or accurate (medium, high low for compatibility)
   ISTART =      0    job   : 0-new  1-cont  2-samecut
   ICHARG =     11    charge: 1-file 2-atom 10-const
   ISPIN  =      1    spin polarized calculation?
   LNONCOLLINEAR =      F non collinear calculations
   LSORBIT =      F    spin-orbit coupling
   INIWAV =      1    electr: 0-lowe 1-rand  2-diag
   LASPH  =      T    aspherical Exc in radial PAW
   METAGGA=      F    non-selfconsistent MetaGGA calc.

 Electronic Relaxation 1
   ENCUT  =  520.0 eV  38.22 Ry    6.18 a.u.   5.60  5.60128.52*2*pi/ulx,y,z
   ENINI  =  520.0     initial cutoff
   ENAUG  =  605.4 eV  augmentation charge cutoff
   NELM   =     90;   NELMIN=  6; NELMDL=  0     # of ELM steps 
   EDIFF  = 0.1E-07   stopping-criterion for ELM
   LREAL  =      F    real-space projection
   NLSPLINE    = F    spline interpolate recip. space projectors
   LCOMPAT=      F    compatible to vasp.4.4
   GGA_COMPAT  = T    GGA compatible to vasp.4.4-vasp.4.6
   LMAXPAW     = -100 max onsite density
   LMAXMIX     =    2 max onsite mixed and CHGCAR
   VOSKOWN=      0    Vosko Wilk Nusair interpolation
   ROPT   =    0.00000   0.00000   0.00000
 Ionic relaxation
   EDIFFG = -.2E-01   stopping-criterion for IOM
   NSW    =      0    number of steps for IOM
   NBLOCK =      1;   KBLOCK =      1    inner block; outer block 
   IBRION =     -1    ionic relax: 0-MD 1-quasi-New 2-CG
   NFREE  =      1    steps in history (QN), initial steepest desc. (CG)
   ISIF   =      2    stress and relaxation
   IWAVPR =     10    prediction:  0-non 1-charg 2-wave 3-comb
   ISYM   =      2    0-nonsym 1-usesym 2-fastsym
   LCORR  =      T    Harris-Foulkes like correction to forces

   POTIM  = 0.5000    time-step for ionic-motion
   TEIN   =    0.0    initial temperature
   TEBEG  =    0.0;   TEEND  =   0.0 temperature during run
   SMASS  =  -3.00    Nose mass-parameter (am)
   estimated Nose-frequenzy (Omega)   =  0.10E-29 period in steps =****** mass=  -0.207E-27a.u.
   SCALEE = 1.0000    scale energy and forces
   NPACO  =    256;   APACO  = 16.0  distance and # of slots for P.C.
   PSTRESS=    0.0 pullay stress

  Mass of Ions in am
   POMASS =  16.00 24.30 26.98
  Ionic Valenz
   ZVAL   =   6.00  2.00  3.00
  Atomic Wigner-Seitz radii
   RWIGS  =  -1.00 -1.00 -1.00
  virtual crystal weights 
   VCA    =   1.00  1.00  1.00
   NELECT =      99.0000    total number of electrons
   NUPDOWN=      -1.0000    fix difference up-down

 DOS related values:
   EMIN   =  10.00;   EMAX   =-10.00  energy-range for DOS
   EFERMI =   0.00
   ISMEAR =     0;   SIGMA  =   0.05  broadening in eV -4-tet -1-fermi 0-gaus

 Electronic relaxation 2 (details)
   IALGO  =     38    algorithm
   LDIAG  =      T    sub-space diagonalisation (order eigenvalues)
   LSUBROT=      F    optimize rotation matrix (better conditioning)
   TURBO    =      0    0=normal 1=particle mesh
   IRESTART =      0    0=no restart 2=restart with 2 vectors
   NREBOOT  =      0    no. of reboots
   NMIN     =      0    reboot dimension
   EREF     =   0.00    reference energy to select bands
   IMIX   =      4    mixing-type and parameters
     AMIX     =   0.40;   BMIX     =  1.00
     AMIX_MAG =   1.60;   BMIX_MAG =  1.00
     AMIN     =   0.01
     WC   =   100.;   INIMIX=   1;  MIXPRE=   1;  MAXMIX= -45

 Intra band minimization:
   WEIMIN = 0.0000     energy-eigenvalue tresh-hold
   EBREAK =  0.39E-10  absolut break condition
   DEPER  =   0.30     relativ break condition  

   TIME   =   0.40     timestep for ELM

  volume/ion in A,a.u.               =      20.68       139.59
  Fermi-wavevector in a.u.,A,eV,Ry     =   0.931280  1.759865 11.800105  0.867283
  Thomas-Fermi vector in A             =   2.057757
 
 Write flags
   LWAVE        =      F    write WAVECAR
   LDOWNSAMPLE  =      F    k-point downsampling of WAVECAR
   LCHARG       =      T    write CHGCAR
   LVTOT        =      F    write LOCPOT, total local potential
   LVHAR        =      F    write LOCPOT, Hartree potential only
   LELF         =      F    write electronic localiz. function (ELF)
   LORBIT       =      0    0 simple, 1 ext, 2 COOP (PROOUT), +10 PAW based schemes


 Dipole corrections
   LMONO  =      F    monopole corrections only (constant potential shift)
   LDIPOL =      F    correct potential (dipole corrections)
   IDIPOL =      0    1-x, 2-y, 3-z, 4-all directions 
   EPSILON=  1.0000000 bulk dielectric constant

 Exchange correlation treatment:
   GGA     =    --    GGA type
   LEXCH   =     8    internal setting for exchange type
   VOSKOWN=      0    Vosko Wilk Nusair interpolation
   LHFCALC =     F    Hartree Fock is set to
   LHFONE  =     F    Hartree Fock one center treatment
   AEXX    =    0.0000 exact exchange contribution

 Linear response parameters
   LEPSILON=     F    determine dielectric tensor
   LRPA    =     F    only Hartree local field effects (RPA)
   LNABLA  =     F    use nabla operator in PAW spheres
   LVEL    =     F    velocity operator in full k-point grid
   LINTERFAST=   F  fast interpolation
   KINTER  =     0    interpolate to denser k-point grid
   CSHIFT  =0.1000    complex shift for real part using Kramers Kronig
   OMEGAMAX=  -1.0    maximum frequency
   DEG_THRESHOLD= 0.2000000E-02 threshold for treating states as degnerate
   RTIME   =   -0.100 relaxation time in fs
  (WPLASMAI=    0.000 imaginary part of plasma frequency in eV, 0.658/RTIME)
   DFIELD  = 0.0000000 0.0000000 0.0000000 field for delta impulse in time
 
 Orbital magnetization related:
   ORBITALMAG=     F  switch on orbital magnetization
   LCHIMAG   =     F  perturbation theory with respect to B field
   DQ        =  0.001000  dq finite difference perturbation B field
   LLRAUG    =     F  two centre corrections for induced B field



--------------------------------------------------------------------------------------------------------


 Static calculation
 charge density and potential remain constant during run
 non-spin polarized calculation
 Variant of blocked Davidson
 Davidson routine will perform the subspace rotation
 perform sub-space diagonalisation
    after iterative eigenvector-optimisation
 no mixing
 using additional bands           14
 reciprocal scheme for non local part
 use partial core corrections
 calculate Harris-corrections to forces 
   (improved forces if not selfconsistent)
 use gradient corrections 
 WARNING: stress and forces are not correct
  (second derivative of E(xc) not defined)
 use of overlap-Matrix (Vanderbilt PP)
 Gauss-broadening in eV      SIGMA  =   0.05


--------------------------------------------------------------------------------------------------------


  energy-cutoff  :      520.00
  volume of cell :      537.80
      direct lattice vectors                 reciprocal lattice vectors
     2.595974150 -1.522302603 -0.021631981     0.386753138  0.002606133  0.001563730
    -0.020365814  3.009330567  0.021631976     0.195633548  0.333635020 -0.001563730
    -0.282768370  0.489769182 69.120091079     0.000059813 -0.000103600  0.014468552

  length of vectors
     3.009477520  3.009477225 69.122404635     0.386765080  0.386765118  0.014469047


 
 k-points in units of 2pi/SCALE and weight: K-Spacing Value to Generate K-Mesh: 0.02
   0.00000000  0.00000000  0.00000000       0.006
   0.02975024  0.00020047  0.00012029       0.024
   0.05950048  0.00040094  0.00024057       0.024
   0.08925072  0.00060142  0.00036086       0.024
   0.11900097  0.00080189  0.00048115       0.024
   0.14875121  0.00100236  0.00060143       0.024
   0.17850145  0.00120283  0.00072172       0.024
   0.04479898  0.02586470 -0.00000000       0.012
   0.07454922  0.02606518  0.00012029       0.024
   0.10429946  0.02626565  0.00024057       0.024
   0.13404970  0.02646612  0.00036086       0.024
   0.16379994  0.02666659  0.00048115       0.024
   0.19355018  0.02686706  0.00060143       0.024
  -0.16345271  0.02446140 -0.00084201       0.024
  -0.13370247  0.02466187 -0.00072172       0.024
  -0.10395223  0.02486235 -0.00060143       0.024
  -0.07420199  0.02506282 -0.00048115       0.024
  -0.04445175  0.02526329 -0.00036086       0.024
  -0.01470151  0.02546376 -0.00024057       0.012
   0.08959795  0.05172941 -0.00000000       0.012
   0.11934819  0.05192988  0.00012029       0.024
   0.14909843  0.05213035  0.00024057       0.024
   0.17884868  0.05233082  0.00036086       0.024
   0.20859892  0.05253130  0.00048115       0.024
  -0.14840398  0.05012563 -0.00096230       0.024
  -0.11865374  0.05032611 -0.00084201       0.024
  -0.08890350  0.05052658 -0.00072172       0.024
  -0.05915326  0.05072705 -0.00060143       0.024
  -0.02940301  0.05092752 -0.00048115       0.012
   0.13439693  0.07759411 -0.00000000       0.012
   0.16414717  0.07779458  0.00012029       0.024
   0.19389741  0.07799506  0.00024057       0.024
   0.22364765  0.07819553  0.00036086       0.024
  -0.13335525  0.07578987 -0.00108258       0.024
  -0.10360500  0.07599034 -0.00096230       0.024
  -0.07385476  0.07619081 -0.00084201       0.024
  -0.04410452  0.07639128 -0.00072172       0.012
   0.17919590  0.10345882 -0.00000000       0.012
   0.20894614  0.10365929  0.00012029       0.024
   0.23869639  0.10385976  0.00024057       0.024
  -0.11830651  0.10145410 -0.00120287       0.024
  -0.08855627  0.10165457 -0.00108258       0.024
  -0.05880603  0.10185504 -0.00096230       0.012
   0.22399488  0.12932352 -0.00000000       0.012
   0.25374512  0.12952399  0.00012029       0.024
  -0.10325778  0.12711833 -0.00132316       0.024
  -0.07350753  0.12731880 -0.00120287       0.012
   0.26879386  0.15518822 -0.00000000       0.012
  -0.08820904  0.15278256 -0.00144344       0.012
 
 k-points in reciprocal lattice and weights: K-Spacing Value to Generate K-Mesh: 0.02
   0.00000000  0.00000000  0.00000000       0.006
   0.07692308 -0.00000000  0.00000000       0.024
   0.15384615 -0.00000000 -0.00000000       0.024
   0.23076923 -0.00000000 -0.00000000       0.024
   0.30769231 -0.00000000  0.00000000       0.024
   0.38461538 -0.00000000 -0.00000000       0.024
   0.46153846 -0.00000000 -0.00000000       0.024
   0.07692308  0.07692308 -0.00000000       0.012
   0.15384615  0.07692308 -0.00000000       0.024
   0.23076923  0.07692308 -0.00000000       0.024
   0.30769231  0.07692308  0.00000000       0.024
   0.38461538  0.07692308 -0.00000000       0.024
   0.46153846  0.07692308  0.00000000       0.024
  -0.46153846  0.07692308  0.00000000       0.024
  -0.38461538  0.07692308  0.00000000       0.024
  -0.30769231  0.07692308  0.00000000       0.024
  -0.23076923  0.07692308 -0.00000000       0.024
  -0.15384615  0.07692308  0.00000000       0.024
  -0.07692308  0.07692308 -0.00000000       0.012
   0.15384615  0.15384615 -0.00000000       0.012
   0.23076923  0.15384615 -0.00000000       0.024
   0.30769231  0.15384615 -0.00000000       0.024
   0.38461538  0.15384615 -0.00000000       0.024
   0.46153846  0.15384615 -0.00000000       0.024
  -0.46153846  0.15384615 -0.00000000       0.024
  -0.38461538  0.15384615 -0.00000000       0.024
  -0.30769231  0.15384615  0.00000000       0.024
  -0.23076923  0.15384615  0.00000000       0.024
  -0.15384615  0.15384615 -0.00000000       0.012
   0.23076923  0.23076923 -0.00000000       0.012
   0.30769231  0.23076923 -0.00000000       0.024
   0.38461538  0.23076923 -0.00000000       0.024
   0.46153846  0.23076923 -0.00000000       0.024
  -0.46153846  0.23076923  0.00000000       0.024
  -0.38461538  0.23076923  0.00000000       0.024
  -0.30769231  0.23076923 -0.00000000       0.024
  -0.23076923  0.23076923 -0.00000000       0.012
   0.30769231  0.30769231 -0.00000000       0.012
   0.38461538  0.30769231 -0.00000000       0.024
   0.46153846  0.30769231 -0.00000000       0.024
  -0.46153846  0.30769231 -0.00000000       0.024
  -0.38461538  0.30769231 -0.00000000       0.024
  -0.30769231  0.30769231 -0.00000000       0.012
   0.38461538  0.38461538  0.00000000       0.012
   0.46153846  0.38461538 -0.00000000       0.024
  -0.46153846  0.38461538 -0.00000000       0.024
  -0.38461538  0.38461538 -0.00000000       0.012
   0.46153846  0.46153846 -0.00000000       0.012
  -0.46153846  0.46153846 -0.00000000       0.012
 
 position of ions in fractional coordinates (direct lattice) 
   0.47744718  0.52255282  0.44773030
   0.51387567  0.48612433  0.55437090
   0.52736998  0.47263002  0.66122530
   0.54227204  0.45772796  0.76541735
   0.83666129  0.16333871  0.48321816
   0.17515410  0.82484590  0.51878492
   0.85211070  0.14788930  0.59001784
   0.18980213  0.81019787  0.62561760
   0.86492491  0.13507509  0.69677262
   0.20311742  0.79688258  0.73196476
   0.50451256  0.49548744  0.50215011
   0.51936631  0.48063369  0.60895110
   0.53213411  0.46786589  0.71577753
   0.16692600  0.83307400  0.46655685
   0.84319250  0.15680750  0.53771224
   0.18156879  0.81843121  0.57333141
   0.85695928  0.14304072  0.64455459
   0.19443624  0.80556376  0.68016741
   0.86978038  0.13021962  0.75198742
   0.92742776  0.07257224  0.23534978
   0.94782456  0.05217544  0.33183684
   0.96021255  0.03978745  0.42771776
   0.60674121  0.39325879  0.29980388
   0.64505725  0.35494275  0.39650777
   0.26852409  0.73147591  0.26786440
   0.29260099  0.70739901  0.36413914
 
 position of ions in cartesian coordinates  (Angst):
   1.10219436  1.06499958 30.94813505
   1.16734909  0.95214830 38.31756679
   1.17243973  0.94333107 45.70276913
   1.18196639  0.92683042 52.90388817
   2.03198575 -0.54544613 33.38551779
   0.29120089  2.46968130 35.87251477
   2.04220708 -0.56314999 40.76685293
   0.29931622  2.45562514 43.25616619
   2.04554653 -0.56893408 48.14519858
   0.30408193  2.44737071 50.60631553
   1.15761840  0.96900235 34.70846598
   1.16628091  0.95399845 42.08991750
   1.16947867  0.94845977 49.47321812
   0.28444182  2.48138836 32.26286211
   2.03366441 -0.54835366 37.15187111
   0.29255988  2.46732747 39.64249606
   2.03947136 -0.55841157 44.53622823
   0.29601565  2.46134190 47.02645335
   2.04263709 -0.56389478 51.96144110
   2.33955102 -1.07816475 16.24890631
   2.36563250 -1.12333919 22.91721821
   2.37093159 -1.13251748 29.54397997
   1.48230040  0.40663669 20.71785360
   1.55520339  0.28036503 27.40037728
   0.60644092  1.92366960 18.52482625
   0.64221082  1.86171435 25.17830338
 


--------------------------------------------------------------------------------------------------------


 k-point  1 :   0.0000 0.0000 0.0000  plane waves:   14675
 k-point  2 :   0.0769-0.0000 0.0000  plane waves:   14656
 k-point  3 :   0.1538-0.0000-0.0000  plane waves:   14611
 k-point  4 :   0.2308-0.0000-0.0000  plane waves:   14538
 k-point  5 :   0.3077-0.0000 0.0000  plane waves:   14487
 k-point  6 :   0.3846-0.0000-0.0000  plane waves:   14437
 k-point  7 :   0.4615-0.0000-0.0000  plane waves:   14390
 k-point  8 :   0.0769 0.0769-0.0000  plane waves:   14625
 k-point  9 :   0.1538 0.0769-0.0000  plane waves:   14548
 k-point 10 :   0.2308 0.0769-0.0000  plane waves:   14474
 k-point 11 :   0.3077 0.0769 0.0000  plane waves:   14468
 k-point 12 :   0.3846 0.0769-0.0000  plane waves:   14388
 k-point 13 :   0.4615 0.0769 0.0000  plane waves:   14353
 k-point 14 :  -0.4615 0.0769 0.0000  plane waves:   14428
 k-point 15 :  -0.3846 0.0769 0.0000  plane waves:   14467
 k-point 16 :  -0.3077 0.0769 0.0000  plane waves:   14539
 k-point 17 :  -0.2308 0.0769-0.0000  plane waves:   14588
 k-point 18 :  -0.1538 0.0769 0.0000  plane waves:   14637
 k-point 19 :  -0.0769 0.0769-0.0000  plane waves:   14646
 k-point 20 :   0.1538 0.1538-0.0000  plane waves:   14515
 k-point 21 :   0.2308 0.1538-0.0000  plane waves:   14461
 k-point 22 :   0.3077 0.1538-0.0000  plane waves:   14415
 k-point 23 :   0.3846 0.1538-0.0000  plane waves:   14367
 k-point 24 :   0.4615 0.1538-0.0000  plane waves:   14381
 k-point 25 :  -0.4615 0.1538-0.0000  plane waves:   14477
 k-point 26 :  -0.3846 0.1538-0.0000  plane waves:   14494
 k-point 27 :  -0.3077 0.1538 0.0000  plane waves:   14542
 k-point 28 :  -0.2308 0.1538 0.0000  plane waves:   14613
 k-point 29 :  -0.1538 0.1538-0.0000  plane waves:   14642
 k-point 30 :   0.2308 0.2308-0.0000  plane waves:   14435
 k-point 31 :   0.3077 0.2308-0.0000  plane waves:   14393
 k-point 32 :   0.3846 0.2308-0.0000  plane waves:   14432
 k-point 33 :   0.4615 0.2308-0.0000  plane waves:   14454
 k-point 34 :  -0.4615 0.2308 0.0000  plane waves:   14469
 k-point 35 :  -0.3846 0.2308 0.0000  plane waves:   14455
 k-point 36 :  -0.3077 0.2308-0.0000  plane waves:   14512
 k-point 37 :  -0.2308 0.2308-0.0000  plane waves:   14600
 k-point 38 :   0.3077 0.3077-0.0000  plane waves:   14444
 k-point 39 :   0.3846 0.3077-0.0000  plane waves:   14456
 k-point 40 :   0.4615 0.3077-0.0000  plane waves:   14463
 k-point 41 :  -0.4615 0.3077-0.0000  plane waves:   14456
 k-point 42 :  -0.3846 0.3077-0.0000  plane waves:   14455
 k-point 43 :  -0.3077 0.3077-0.0000  plane waves:   14477
 k-point 44 :   0.3846 0.3846 0.0000  plane waves:   14446
 k-point 45 :   0.4615 0.3846-0.0000  plane waves:   14432
 k-point 46 :  -0.4615 0.3846-0.0000  plane waves:   14403
 k-point 47 :  -0.3846 0.3846-0.0000  plane waves:   14368
 k-point 48 :   0.4615 0.4615-0.0000  plane waves:   14410
 k-point 49 :  -0.4615 0.4615-0.0000  plane waves:   14408

 maximum and minimum number of plane-waves per node :      3722     3564

 maximum number of plane-waves:     14675
 maximum index in each direction: 
   IXMAX=    6   IYMAX=    5   IZMAX=  128
   IXMIN=   -6   IYMIN=   -6   IZMIN= -128


 parallel 3D FFT for wavefunctions:
    minimum data exchange during FFTs selected (reduces bandwidth)
 parallel 3D FFT for charge:
    minimum data exchange during FFTs selected (reduces bandwidth)


 total amount of memory used by VASP MPI-rank0   150905. kBytes
=======================================================================

   base      :      30000. kBytes
   nonl-proj :      36073. kBytes
   fftplans  :      24968. kBytes
   grid      :      13079. kBytes
   one-center:         21. kBytes
   wavefun   :      46764. kBytes
 
     INWAV:  cpu time    0.0000: real time    0.0000
 initial charge density was supplied:
 number of electron      99.0000001 magnetization 
 keeping initial charge density in first step


--------------------------------------------------------------------------------------------------------


 Maximum index for augmentation-charges        12159 (set IRDMAX)


--------------------------------------------------------------------------------------------------------


 First call to EWALD:  gamma=   0.218
 Maximum number of real-space cells 8x 8x 1
 Maximum number of reciprocal cells 1x 1x20

    FEWALD:  cpu time    0.0020: real time    0.0020


--------------------------------------- Iteration      1(   1)  ---------------------------------------


    POTLOK:  cpu time    0.0847: real time    0.0857
    SETDIJ:  cpu time    0.1492: real time    0.1507
     EDDAV:  cpu time   12.2978: real time   12.5065
       DOS:  cpu time    0.0046: real time    0.0046
    --------------------------------------------
      LOOP:  cpu time   12.5364: real time   12.7476

 eigenvalue-minimisations  :  6464
 total energy-change (2. order) : 0.6308674E+03  (-0.3997849E+04)
 number of electron      99.0000001 magnetization 
 augmentation part       99.0000001 magnetization 

 Free energy of the ion-electron system (eV)
  ---------------------------------------------------
  alpha Z        PSCENC =        26.50962396
  Ewald energy   TEWEN  =    163459.16445548
  -Hartree energ DENC   =   -168295.28336230
  -exchange      EXHF   =         0.00000000
  -V(xc)+E(xc)   XCENC  =        41.09953536
  PAW double counting   =      3362.11583478    -3059.97354415
  entropy T*S    EENTRO =        -0.00621797
  eigenvalues    EBANDS =       191.86618578
  atomic energy  EATOM  =      4905.37483946
  Solvation  Ediel_sol  =         0.00000000
  ---------------------------------------------------
  free energy    TOTEN  =       630.86735040 eV

  energy without entropy =      630.87356838  energy(sigma->0) =      630.87045939


--------------------------------------------------------------------------------------------------------




--------------------------------------- Iteration      1(   2)  ---------------------------------------


     EDDAV:  cpu time   15.6970: real time   15.7263
       DOS:  cpu time    0.0027: real time    0.0037
    --------------------------------------------
      LOOP:  cpu time   15.6998: real time   15.7300

 eigenvalue-minimisations  :  8336
 total energy-change (2. order) :-0.6643962E+03  (-0.6291792E+03)
 number of electron      99.0000001 magnetization 
 augmentation part       99.0000001 magnetization 

 Free energy of the ion-electron system (eV)
  ---------------------------------------------------
  alpha Z        PSCENC =        26.50962396
  Ewald energy   TEWEN  =    163459.16445548
  -Hartree energ DENC   =   -168295.28336230
  -exchange      EXHF   =         0.00000000
  -V(xc)+E(xc)   XCENC  =        41.09953536
  PAW double counting   =      3362.11583478    -3059.97354415
  entropy T*S    EENTRO =        -0.00875017
  eigenvalues    EBANDS =      -472.52750679
  atomic energy  EATOM  =      4905.37483946
  Solvation  Ediel_sol  =         0.00000000
  ---------------------------------------------------
  free energy    TOTEN  =       -33.52887437 eV

  energy without entropy =      -33.52012420  energy(sigma->0) =      -33.52449928


--------------------------------------------------------------------------------------------------------




--------------------------------------- Iteration      1(   3)  ---------------------------------------


     EDDAV:  cpu time   14.5696: real time   14.6008
       DOS:  cpu time    0.0039: real time    0.0039
    --------------------------------------------
      LOOP:  cpu time   14.5735: real time   14.6046

 eigenvalue-minimisations  :  7616
 total energy-change (2. order) :-0.1007563E+03  (-0.9765593E+02)
 number of electron      99.0000001 magnetization 
 augmentation part       99.0000001 magnetization 

 Free energy of the ion-electron system (eV)
  ---------------------------------------------------
  alpha Z        PSCENC =        26.50962396
  Ewald energy   TEWEN  =    163459.16445548
  -Hartree energ DENC   =   -168295.28336230
  -exchange      EXHF   =         0.00000000
  -V(xc)+E(xc)   XCENC  =        41.09953536
  PAW double counting   =      3362.11583478    -3059.97354415
  entropy T*S    EENTRO =        -0.01566964
  eigenvalues    EBANDS =      -573.27685902
  atomic energy  EATOM  =      4905.37483946
  Solvation  Ediel_sol  =         0.00000000
  ---------------------------------------------------
  free energy    TOTEN  =      -134.28514607 eV

  energy without entropy =     -134.26947643  energy(sigma->0) =     -134.27731125


--------------------------------------------------------------------------------------------------------




--------------------------------------- Iteration      1(   4)  ---------------------------------------


     EDDAV:  cpu time   13.8525: real time   13.8789
       DOS:  cpu time    0.0027: real time    0.0027
    --------------------------------------------
      LOOP:  cpu time   13.8552: real time   13.8816

 eigenvalue-minimisations  :  7400
 total energy-change (2. order) :-0.3581666E+01  (-0.3560715E+01)
 number of electron      99.0000001 magnetization 
 augmentation part       99.0000001 magnetization 

 Free energy of the ion-electron system (eV)
  ---------------------------------------------------
  alpha Z        PSCENC =        26.50962396
  Ewald energy   TEWEN  =    163459.16445548
  -Hartree energ DENC   =   -168295.28336230
  -exchange      EXHF   =         0.00000000
  -V(xc)+E(xc)   XCENC  =        41.09953536
  PAW double counting   =      3362.11583478    -3059.97354415
  entropy T*S    EENTRO =        -0.01914474
  eigenvalues    EBANDS =      -576.85504969
  atomic energy  EATOM  =      4905.37483946
  Solvation  Ediel_sol  =         0.00000000
  ---------------------------------------------------
  free energy    TOTEN  =      -137.86681183 eV

  energy without entropy =     -137.84766709  energy(sigma->0) =     -137.85723946


--------------------------------------------------------------------------------------------------------




--------------------------------------- Iteration      1(   5)  ---------------------------------------


     EDDAV:  cpu time   15.3278: real time   15.3588
       DOS:  cpu time    0.0028: real time    0.0028
    --------------------------------------------
      LOOP:  cpu time   15.3306: real time   15.3616

 eigenvalue-minimisations  :  8888
 total energy-change (2. order) :-0.1433209E+00  (-0.1432376E+00)
 number of electron      99.0000001 magnetization 
 augmentation part       99.0000001 magnetization 

 Free energy of the ion-electron system (eV)
  ---------------------------------------------------
  alpha Z        PSCENC =        26.50962396
  Ewald energy   TEWEN  =    163459.16445548
  -Hartree energ DENC   =   -168295.28336230
  -exchange      EXHF   =         0.00000000
  -V(xc)+E(xc)   XCENC  =        41.09953536
  PAW double counting   =      3362.11583478    -3059.97354415
  entropy T*S    EENTRO =        -0.01907812
  eigenvalues    EBANDS =      -576.99843722
  atomic energy  EATOM  =      4905.37483946
  Solvation  Ediel_sol  =         0.00000000
  ---------------------------------------------------
  free energy    TOTEN  =      -138.01013275 eV

  energy without entropy =     -137.99105463  energy(sigma->0) =     -138.00059369


--------------------------------------------------------------------------------------------------------




--------------------------------------- Iteration      1(   6)  ---------------------------------------


     EDDAV:  cpu time   15.4501: real time   15.4810
       DOS:  cpu time    0.0028: real time    0.0041
    --------------------------------------------
      LOOP:  cpu time   15.4529: real time   15.4852

 eigenvalue-minimisations  :  8504
 total energy-change (2. order) :-0.3679287E-02  (-0.3678508E-02)
 number of electron      99.0000001 magnetization 
 augmentation part       99.0000001 magnetization 

 Free energy of the ion-electron system (eV)
  ---------------------------------------------------
  alpha Z        PSCENC =        26.50962396
  Ewald energy   TEWEN  =    163459.16445548
  -Hartree energ DENC   =   -168295.28336230
  -exchange      EXHF   =         0.00000000
  -V(xc)+E(xc)   XCENC  =        41.09953536
  PAW double counting   =      3362.11583478    -3059.97354415
  entropy T*S    EENTRO =        -0.01908247
  eigenvalues    EBANDS =      -577.00211216
  atomic energy  EATOM  =      4905.37483946
  Solvation  Ediel_sol  =         0.00000000
  ---------------------------------------------------
  free energy    TOTEN  =      -138.01381204 eV

  energy without entropy =     -137.99472957  energy(sigma->0) =     -138.00427080


--------------------------------------------------------------------------------------------------------




--------------------------------------- Iteration      1(   7)  ---------------------------------------


     EDDAV:  cpu time   16.3703: real time   16.4020
       DOS:  cpu time    0.0027: real time    0.0027
    --------------------------------------------
      LOOP:  cpu time   16.3730: real time   16.4046

 eigenvalue-minimisations  :  9352
 total energy-change (2. order) :-0.1988633E-03  (-0.1988521E-03)
 number of electron      99.0000001 magnetization 
 augmentation part       99.0000001 magnetization 

 Free energy of the ion-electron system (eV)
  ---------------------------------------------------
  alpha Z        PSCENC =        26.50962396
  Ewald energy   TEWEN  =    163459.16445548
  -Hartree energ DENC   =   -168295.28336230
  -exchange      EXHF   =         0.00000000
  -V(xc)+E(xc)   XCENC  =        41.09953536
  PAW double counting   =      3362.11583478    -3059.97354415
  entropy T*S    EENTRO =        -0.01908252
  eigenvalues    EBANDS =      -577.00231097
  atomic energy  EATOM  =      4905.37483946
  Solvation  Ediel_sol  =         0.00000000
  ---------------------------------------------------
  free energy    TOTEN  =      -138.01401090 eV

  energy without entropy =     -137.99492838  energy(sigma->0) =     -138.00446964


--------------------------------------------------------------------------------------------------------




--------------------------------------- Iteration      1(   8)  ---------------------------------------


     EDDAV:  cpu time   15.7088: real time   15.7394
       DOS:  cpu time    0.0025: real time    0.0025
    --------------------------------------------
      LOOP:  cpu time   15.7113: real time   15.7419

 eigenvalue-minimisations  :  8696
 total energy-change (2. order) :-0.5894734E-05  (-0.5894561E-05)
 number of electron      99.0000001 magnetization 
 augmentation part       99.0000001 magnetization 

 Free energy of the ion-electron system (eV)
  ---------------------------------------------------
  alpha Z        PSCENC =        26.50962396
  Ewald energy   TEWEN  =    163459.16445548
  -Hartree energ DENC   =   -168295.28336230
  -exchange      EXHF   =         0.00000000
  -V(xc)+E(xc)   XCENC  =        41.09953536
  PAW double counting   =      3362.11583478    -3059.97354415
  entropy T*S    EENTRO =        -0.01908253
  eigenvalues    EBANDS =      -577.00231686
  atomic energy  EATOM  =      4905.37483946
  Solvation  Ediel_sol  =         0.00000000
  ---------------------------------------------------
  free energy    TOTEN  =      -138.01401679 eV

  energy without entropy =     -137.99493427  energy(sigma->0) =     -138.00447553


--------------------------------------------------------------------------------------------------------




--------------------------------------- Iteration      1(   9)  ---------------------------------------


     EDDAV:  cpu time   16.1765: real time   16.2089
       DOS:  cpu time    0.0029: real time    0.0040
    --------------------------------------------
      LOOP:  cpu time   16.1794: real time   16.2129

 eigenvalue-minimisations  :  9136
 total energy-change (2. order) :-0.5162519E-06  (-0.5161182E-06)
 number of electron      99.0000001 magnetization 
 augmentation part       99.0000001 magnetization 

 Free energy of the ion-electron system (eV)
  ---------------------------------------------------
  alpha Z        PSCENC =        26.50962396
  Ewald energy   TEWEN  =    163459.16445548
  -Hartree energ DENC   =   -168295.28336230
  -exchange      EXHF   =         0.00000000
  -V(xc)+E(xc)   XCENC  =        41.09953536
  PAW double counting   =      3362.11583478    -3059.97354415
  entropy T*S    EENTRO =        -0.01908253
  eigenvalues    EBANDS =      -577.00231738
  atomic energy  EATOM  =      4905.37483946
  Solvation  Ediel_sol  =         0.00000000
  ---------------------------------------------------
  free energy    TOTEN  =      -138.01401731 eV

  energy without entropy =     -137.99493478  energy(sigma->0) =     -138.00447605


--------------------------------------------------------------------------------------------------------




--------------------------------------- Iteration      1(  10)  ---------------------------------------


     EDDAV:  cpu time   12.3231: real time   12.3467
       DOS:  cpu time    0.0027: real time    0.0027
    --------------------------------------------
      LOOP:  cpu time   12.3258: real time   12.3494

 eigenvalue-minimisations  :  6296
 total energy-change (2. order) :-0.5940819E-07  (-0.5950633E-07)
 number of electron      99.0000001 magnetization 
 augmentation part       99.0000001 magnetization 

 Free energy of the ion-electron system (eV)
  ---------------------------------------------------
  alpha Z        PSCENC =        26.50962396
  Ewald energy   TEWEN  =    163459.16445548
  -Hartree energ DENC   =   -168295.28336230
  -exchange      EXHF   =         0.00000000
  -V(xc)+E(xc)   XCENC  =        41.09953536
  PAW double counting   =      3362.11583478    -3059.97354415
  entropy T*S    EENTRO =        -0.01908253
  eigenvalues    EBANDS =      -577.00231744
  atomic energy  EATOM  =      4905.37483946
  Solvation  Ediel_sol  =         0.00000000
  ---------------------------------------------------
  free energy    TOTEN  =      -138.01401737 eV

  energy without entropy =     -137.99493484  energy(sigma->0) =     -138.00447611


--------------------------------------------------------------------------------------------------------




--------------------------------------- Iteration      1(  11)  ---------------------------------------


     EDDAV:  cpu time   11.0836: real time   11.1040
       DOS:  cpu time    0.0026: real time    0.0026
    --------------------------------------------
      LOOP:  cpu time   11.0862: real time   11.1066

 eigenvalue-minimisations  :  5016
 total energy-change (2. order) :-0.9140422E-08  (-0.9007880E-08)
 number of electron      99.0000001 magnetization 
 augmentation part       99.0000001 magnetization 

 Free energy of the ion-electron system (eV)
  ---------------------------------------------------
  alpha Z        PSCENC =        26.50962396
  Ewald energy   TEWEN  =    163459.16445548
  -Hartree energ DENC   =   -168295.28336230
  -exchange      EXHF   =         0.00000000
  -V(xc)+E(xc)   XCENC  =        41.09953536
  PAW double counting   =      3362.11583478    -3059.97354415
  entropy T*S    EENTRO =        -0.01908253
  eigenvalues    EBANDS =      -577.00231745
  atomic energy  EATOM  =      4905.37483946
  Solvation  Ediel_sol  =         0.00000000
  ---------------------------------------------------
  free energy    TOTEN  =      -138.01401738 eV

  energy without entropy =     -137.99493485  energy(sigma->0) =     -138.00447612


--------------------------------------------------------------------------------------------------------




 average (electrostatic) potential at core
  the test charge radii are     0.7215  1.0714  1.0406
  (the norm of the test charge is              1.0000)
       1 -76.1417       2 -74.4366       3 -73.0476       4 -72.1487       5 -75.3760
       6 -74.9122       7 -73.9727       8 -73.5106       9 -72.6027      10 -72.2180
      11 -57.0843      12 -55.6842      13 -54.2265      14 -57.5617      15 -56.6134
      16 -56.1505      17 -55.2208      18 -54.7536      19 -53.2778      20 -79.8715
      21 -79.7681      22 -80.5874      23 -79.7485      24 -79.7464      25 -79.7359
      26 -79.7753
 
 
 
 E-fermi :   0.8595     XC(G=0):  -6.0403     alpha+bet : -7.9899


 k-point     1 :       0.0000    0.0000    0.0000
  band No.  band energies     occupation 
      1     -20.0503      2.00000
      2     -19.2689      2.00000
      3     -18.7324      2.00000
      4     -18.2522      2.00000
      5     -17.7869      2.00000
      6     -17.3235      2.00000
      7     -16.8665      2.00000
      8     -16.4058      2.00000
      9     -15.8706      2.00000
     10     -14.8562      2.00000
     11      -9.7806      2.00000
     12      -9.4289      2.00000
     13      -8.7976      2.00000
     14      -7.9575      2.00000
     15      -7.0290      2.00000
     16      -6.3239      2.00000
     17      -5.7662      2.00000
     18      -5.2188      2.00000
     19      -4.6485      2.00000
     20      -4.2343      2.00000
     21      -3.9264      2.00000
     22      -3.7846      2.00000
     23      -3.2319      2.00000
     24      -3.2071      2.00000
     25      -2.9415      2.00000
     26      -2.9308      2.00000
     27      -2.7442      2.00000
     28      -2.5107      2.00000
     29      -2.4811      2.00000
     30      -2.4459      2.00000
     31      -2.0277      2.00000
     32      -1.9680      2.00000
     33      -1.7558      2.00000
     34      -1.5610      2.00000
     35      -1.5049      2.00000
     36      -1.0990      2.00000
     37      -1.0441      2.00000
     38      -0.8991      2.00000
     39      -0.8203      2.00000
     40      -0.6365      2.00000
     41      -0.5831      2.00000
     42      -0.1837      2.00000
     43      -0.1297      2.00000
     44       0.3087      2.00000
     45       0.3641      2.00000
     46       0.6460      2.00000
     47       0.7981      1.91760
     48       1.0853      0.00000
     49       1.1308      0.00000
     50       2.3343      0.00000
     51       3.0374      0.00000
     52       3.8831      0.00000
     53       4.1788      0.00000
     54       4.7364      0.00000
     55       5.3011      0.00000
     56       5.3307      0.00000
     57       5.8659      0.00000
     58       6.2678      0.00000
     59       6.4455      0.00000
     60       6.8489      0.00000
     61       7.0955      0.00000
     62       7.4185      0.00000
     63       7.8791      0.00000
     64       7.9461      0.00000

 k-point     2 :       0.0769   -0.0000    0.0000
  band No.  band energies     occupation 
      1     -20.0018      2.00000
      2     -19.2245      2.00000
      3     -18.6916      2.00000
      4     -18.2120      2.00000
      5     -17.7469      2.00000
      6     -17.2834      2.00000
      7     -16.8262      2.00000
      8     -16.3664      2.00000
      9     -15.8348      2.00000
     10     -14.8308      2.00000
     11      -9.6511      2.00000
     12      -9.3028      2.00000
     13      -8.6745      2.00000
     14      -7.8399      2.00000
     15      -6.9217      2.00000
     16      -6.2471      2.00000
     17      -5.6845      2.00000
     18      -5.1744      2.00000
     19      -4.6270      2.00000
     20      -4.1893      2.00000
     21      -4.1409      2.00000
     22      -3.7510      2.00000
     23      -3.3098      2.00000
     24      -3.2801      2.00000
     25      -3.0943      2.00000
     26      -2.9837      2.00000
     27      -2.7565      2.00000
     28      -2.5911      2.00000
     29      -2.5303      2.00000
     30      -2.4908      2.00000
     31      -2.2114      2.00000
     32      -2.0523      2.00000
     33      -1.8234      2.00000
     34      -1.7019      2.00000
     35      -1.5867      2.00000
     36      -1.2913      2.00000
     37      -1.1254      2.00000
     38      -0.9016      2.00000
     39      -0.7676      2.00000
     40      -0.7545      2.00000
     41      -0.6631      2.00000
     42      -0.3636      2.00000
     43      -0.2100      2.00000
     44       0.1047      2.00000
     45       0.2843      2.00000
     46       0.6798      2.00000
     47       0.9741      0.00119
     48       0.9793      0.00070
     49       1.0715      0.00000
     50       2.5388      0.00000
     51       3.2969      0.00000
     52       4.0966      0.00000
     53       4.3939      0.00000
     54       4.9946      0.00000
     55       5.4424      0.00000
     56       5.5858      0.00000
     57       6.1278      0.00000
     58       6.3837      0.00000
     59       6.7058      0.00000
     60       6.9568      0.00000
     61       7.3561      0.00000
     62       7.5221      0.00000
     63       7.9828      0.00000
     64       8.0792      0.00000

 k-point     3 :       0.1538   -0.0000   -0.0000
  band No.  band energies     occupation 
      1     -19.8638      2.00000
      2     -19.0989      2.00000
      3     -18.5762      2.00000
      4     -18.0982      2.00000
      5     -17.6334      2.00000
      6     -17.1700      2.00000
      7     -16.7123      2.00000
      8     -16.2546      2.00000
      9     -15.7333      2.00000
     10     -14.7595      2.00000
     11      -9.2641      2.00000
     12      -8.9277      2.00000
     13      -8.3090      2.00000
     14      -7.4923      2.00000
     15      -6.6093      2.00000
     16      -6.0604      2.00000
     17      -5.4765      2.00000
     18      -5.1207      2.00000
     19      -4.8124      2.00000
     20      -4.3570      2.00000
     21      -4.0970      2.00000
     22      -3.7738      2.00000
     23      -3.6513      2.00000
     24      -3.4627      2.00000
     25      -3.2713      2.00000
     26      -3.1760      2.00000
     27      -3.1004      2.00000
     28      -2.7117      2.00000
     29      -2.6584      2.00000
     30      -2.6465      2.00000
     31      -2.2696      2.00000
     32      -2.1971      2.00000
     33      -2.1680      2.00000
     34      -2.0079      2.00000
     35      -1.7344      2.00000
     36      -1.7030      2.00000
     37      -1.2772      2.00000
     38      -1.2407      2.00000
     39      -1.1175      2.00000
     40      -0.7930      2.00000
     41      -0.7769      2.00000
     42      -0.3854      2.00000
     43      -0.3285      2.00000
     44      -0.2700      2.00000
     45       0.1722      2.00000
     46       0.4231      2.00000
     47       0.8695      0.77659
     48       0.9921      0.00018
     49       1.4064      0.00000
     50       3.0445      0.00000
     51       3.9102      0.00000
     52       4.5607      0.00000
     53       4.9365      0.00000
     54       5.4146      0.00000
     55       5.5985      0.00000
     56       5.7053      0.00000
     57       6.0011      0.00000
     58       6.2158      0.00000
     59       6.3328      0.00000
     60       6.7728      0.00000
     61       6.8185      0.00000
     62       7.1322      0.00000
     63       7.3589      0.00000
     64       7.3678      0.00000

 k-point     4 :       0.2308   -0.0000   -0.0000
  band No.  band energies     occupation 
      1     -19.6595      2.00000
      2     -18.9154      2.00000
      3     -18.4080      2.00000
      4     -17.9314      2.00000
      5     -17.4669      2.00000
      6     -17.0038      2.00000
      7     -16.5449      2.00000
      8     -16.0899      2.00000
      9     -15.5832      2.00000
     10     -14.6576      2.00000
     11      -8.6270      2.00000
     12      -8.3177      2.00000
     13      -7.7185      2.00000
     14      -6.9350      2.00000
     15      -6.2510      2.00000
     16      -5.9393      2.00000
     17      -5.5537      2.00000
     18      -5.0106      2.00000
     19      -4.9257      2.00000
     20      -4.5144      2.00000
     21      -4.3286      2.00000
     22      -4.0327      2.00000
     23      -3.7403      2.00000
     24      -3.5947      2.00000
     25      -3.5616      2.00000
     26      -3.2948      2.00000
     27      -3.2402      2.00000
     28      -3.0726      2.00000
     29      -3.0346      2.00000
     30      -2.8038      2.00000
     31      -2.5729      2.00000
     32      -2.4916      2.00000
     33      -2.3264      2.00000
     34      -2.1046      2.00000
     35      -1.8612      2.00000
     36      -1.7145      2.00000
     37      -1.7027      2.00000
     38      -1.6077      2.00000
     39      -1.3984      2.00000
     40      -1.0979      2.00000
     41      -0.9367      2.00000
     42      -0.5694      2.00000
     43      -0.4803      2.00000
     44       0.0199      2.00000
     45       0.0359      2.00000
     46       0.1667      2.00000
     47       0.8409      1.40065
     48       0.8855      0.46262
     49       1.9237      0.00000
     50       2.7980      0.00000
     51       3.2538      0.00000
     52       3.8158      0.00000
     53       3.9804      0.00000
     54       4.5827      0.00000
     55       4.8282      0.00000
     56       5.3892      0.00000
     57       5.6458      0.00000
     58       5.8667      0.00000
     59       6.3024      0.00000
     60       6.5200      0.00000
     61       6.6067      0.00000
     62       6.8622      0.00000
     63       6.9662      0.00000
     64       7.1315      0.00000

 k-point     5 :       0.3077   -0.0000    0.0000
  band No.  band energies     occupation 
      1     -19.4281      2.00000
      2     -18.7116      2.00000
      3     -18.2214      2.00000
      4     -17.7450      2.00000
      5     -17.2806      2.00000
      6     -16.8180      2.00000
      7     -16.3577      2.00000
      8     -15.9047      2.00000
      9     -15.4133      2.00000
     10     -14.5481      2.00000
     11      -7.7964      2.00000
     12      -7.5321      2.00000
     13      -6.9814      2.00000
     14      -6.5990      2.00000
     15      -6.2170      2.00000
     16      -5.7711      2.00000
     17      -5.4262      2.00000
     18      -5.2602      2.00000
     19      -4.8871      2.00000
     20      -4.6886      2.00000
     21      -4.3848      2.00000
     22      -4.0824      2.00000
     23      -3.9380      2.00000
     24      -3.8300      2.00000
     25      -3.7558      2.00000
     26      -3.4810      2.00000
     27      -3.4219      2.00000
     28      -3.2558      2.00000
     29      -2.9899      2.00000
     30      -2.9610      2.00000
     31      -2.7641      2.00000
     32      -2.5650      2.00000
     33      -2.4859      2.00000
     34      -2.3983      2.00000
     35      -2.1768      2.00000
     36      -2.0190      2.00000
     37      -1.7757      2.00000
     38      -1.5569      2.00000
     39      -1.3197      2.00000
     40      -1.0955      2.00000
     41      -0.9206      2.00000
     42      -0.8394      2.00000
     43      -0.6398      2.00000
     44      -0.2041      2.00000
     45      -0.1288      2.00000
     46       0.3742      2.00000
     47       0.7297      1.99976
     48       0.7744      1.98386
     49       0.8046      1.87938
     50       1.2173      0.00000
     51       1.6555      0.00000
     52       2.4846      0.00000
     53       2.9165      0.00000
     54       3.6248      0.00000
     55       4.6211      0.00000
     56       4.9266      0.00000
     57       5.3688      0.00000
     58       5.8793      0.00000
     59       6.0219      0.00000
     60       6.1531      0.00000
     61       6.3886      0.00000
     62       6.5612      0.00000
     63       6.7999      0.00000
     64       6.9346      0.00000

 k-point     6 :       0.3846   -0.0000   -0.0000
  band No.  band energies     occupation 
      1     -19.2227      2.00000
      2     -18.5354      2.00000
      3     -18.0594      2.00000
      4     -17.5822      2.00000
      5     -17.1178      2.00000
      6     -16.6559      2.00000
      7     -16.1941      2.00000
      8     -15.7422      2.00000
      9     -15.2622      2.00000
     10     -14.4569      2.00000
     11      -7.5576      2.00000
     12      -6.6905      2.00000
     13      -6.4791      2.00000
     14      -6.1458      2.00000
     15      -5.9306      2.00000
     16      -5.6868      2.00000
     17      -5.3921      2.00000
     18      -5.1326      2.00000
     19      -4.9328      2.00000
     20      -4.5425      2.00000
     21      -4.3415      2.00000
     22      -4.1536      2.00000
     23      -4.0216      2.00000
     24      -3.9606      2.00000
     25      -3.6636      2.00000
     26      -3.5526      2.00000
     27      -3.5142      2.00000
     28      -3.1591      2.00000
     29      -3.0869      2.00000
     30      -3.0217      2.00000
     31      -2.9564      2.00000
     32      -2.6375      2.00000
     33      -2.6017      2.00000
     34      -2.2319      2.00000
     35      -2.1430      2.00000
     36      -1.8600      2.00000
     37      -1.6834      2.00000
     38      -1.6650      2.00000
     39      -1.6067      2.00000
     40      -1.5334      2.00000
     41      -1.2221      2.00000
     42      -1.1930      2.00000
     43      -1.0116      2.00000
     44      -0.7657      2.00000
     45      -0.4948      2.00000
     46      -0.3195      2.00000
     47      -0.2485      2.00000
     48       0.2488      2.00000
     49       0.5450      2.00000
     50       0.6852      2.00000
     51       0.7659      1.99187
     52       1.6325      0.00000
     53       2.0028      0.00000
     54       3.0291      0.00000
     55       3.7856      0.00000
     56       4.6661      0.00000
     57       5.3102      0.00000
     58       5.4871      0.00000
     59       5.6414      0.00000
     60       5.7548      0.00000
     61       5.9954      0.00000
     62       6.3904      0.00000
     63       6.5876      0.00000
     64       6.7269      0.00000

 k-point     7 :       0.4615   -0.0000   -0.0000
  band No.  band energies     occupation 
      1     -19.1003      2.00000
      2     -18.4329      2.00000
      3     -17.9646      2.00000
      4     -17.4865      2.00000
      5     -17.0221      2.00000
      6     -16.5606      2.00000
      7     -16.0978      2.00000
      8     -15.6463      2.00000
      9     -15.1718      2.00000
     10     -14.4057      2.00000
     11      -7.7801      2.00000
     12      -6.7419      2.00000
     13      -6.1887      2.00000
     14      -5.6857      2.00000
     15      -5.5500      2.00000
     16      -5.1871      2.00000
     17      -5.0855      2.00000
     18      -4.7379      2.00000
     19      -4.6158      2.00000
     20      -4.2787      2.00000
     21      -4.2001      2.00000
     22      -4.0627      2.00000
     23      -3.9094      2.00000
     24      -3.8032      2.00000
     25      -3.6233      2.00000
     26      -3.5900      2.00000
     27      -3.4695      2.00000
     28      -3.2200      2.00000
     29      -3.1591      2.00000
     30      -3.1081      2.00000
     31      -3.0769      2.00000
     32      -2.9222      2.00000
     33      -2.6821      2.00000
     34      -2.6223      2.00000
     35      -2.3925      2.00000
     36      -2.2209      2.00000
     37      -2.1942      2.00000
     38      -1.9195      2.00000
     39      -1.8549      2.00000
     40      -1.7534      2.00000
     41      -1.6612      2.00000
     42      -1.2912      2.00000
     43      -1.2393      2.00000
     44      -1.0821      2.00000
     45      -0.8346      2.00000
     46      -0.3747      2.00000
     47      -0.3132      2.00000
     48      -0.2437      2.00000
     49      -0.0533      2.00000
     50       0.6355      2.00000
     51       0.7414      1.99916
     52       1.2850      0.00000
     53       1.5355      0.00000
     54       3.0145      0.00000
     55       3.1394      0.00000
     56       4.3134      0.00000
     57       4.8293      0.00000
     58       5.2467      0.00000
     59       5.5054      0.00000
     60       5.7744      0.00000
     61       5.8916      0.00000
     62       6.1858      0.00000
     63       6.4360      0.00000
     64       6.7006      0.00000

 k-point     8 :       0.0769    0.0769   -0.0000
  band No.  band energies     occupation 
      1     -19.9046      2.00000
      2     -19.1378      2.00000
      3     -18.6120      2.00000
      4     -18.1336      2.00000
      5     -17.6687      2.00000
      6     -17.2053      2.00000
      7     -16.7477      2.00000
      8     -16.2894      2.00000
      9     -15.7649      2.00000
     10     -14.7813      2.00000
     11      -9.3898      2.00000
     12      -9.0494      2.00000
     13      -8.4276      2.00000
     14      -7.6047      2.00000
     15      -6.7088      2.00000
     16      -6.1184      2.00000
     17      -5.5338      2.00000
     18      -5.1421      2.00000
     19      -4.7765      2.00000
     20      -4.3522      2.00000
     21      -4.0974      2.00000
     22      -3.7446      2.00000
     23      -3.5570      2.00000
     24      -3.3424      2.00000
     25      -3.2125      2.00000
     26      -3.1133      2.00000
     27      -2.9925      2.00000
     28      -2.6670      2.00000
     29      -2.6200      2.00000
     30      -2.5085      2.00000
     31      -2.3672      2.00000
     32      -2.1844      2.00000
     33      -2.0428      2.00000
     34      -1.9006      2.00000
     35      -1.7204      2.00000
     36      -1.5717      2.00000
     37      -1.2577      2.00000
     38      -1.1195      2.00000
     39      -0.9875      2.00000
     40      -0.7952      2.00000
     41      -0.6420      2.00000
     42      -0.5026      2.00000
     43      -0.3255      2.00000
     44      -0.1469      2.00000
     45       0.1750      2.00000
     46       0.5399      2.00000
     47       0.8857      0.45935
     48       1.0022      0.00005
     49       1.2802      0.00000
     50       2.9048      0.00000
     51       3.7335      0.00000
     52       4.4536      0.00000
     53       4.7937      0.00000
     54       5.4278      0.00000
     55       5.6897      0.00000
     56       6.0338      0.00000
     57       6.4745      0.00000
     58       6.5815      0.00000
     59       6.7702      0.00000
     60       6.8287      0.00000
     61       6.9786      0.00000
     62       7.0393      0.00000
     63       7.1614      0.00000
     64       7.3842      0.00000

 k-point     9 :       0.1538    0.0769   -0.0000
  band No.  band energies     occupation 
      1     -19.7301      2.00000
      2     -18.9820      2.00000
      3     -18.4691      2.00000
      4     -17.9920      2.00000
      5     -17.5275      2.00000
      6     -17.0642      2.00000
      7     -16.6058      2.00000
      8     -16.1499      2.00000
      9     -15.6378      2.00000
     10     -14.6938      2.00000
     11      -8.8746      2.00000
     12      -8.5539      2.00000
     13      -7.9468      2.00000
     14      -7.1497      2.00000
     15      -6.3355      2.00000
     16      -6.0104      2.00000
     17      -5.5130      2.00000
     18      -5.0790      2.00000
     19      -4.9195      2.00000
     20      -4.4195      2.00000
     21      -4.2201      2.00000
     22      -3.9162      2.00000
     23      -3.6665      2.00000
     24      -3.4802      2.00000
     25      -3.4394      2.00000
     26      -3.3729      2.00000
     27      -3.1925      2.00000
     28      -2.9483      2.00000
     29      -2.9199      2.00000
     30      -2.7518      2.00000
     31      -2.4702      2.00000
     32      -2.3085      2.00000
     33      -2.2707      2.00000
     34      -2.0049      2.00000
     35      -1.9244      2.00000
     36      -1.8098      2.00000
     37      -1.5382      2.00000
     38      -1.4724      2.00000
     39      -1.3456      2.00000
     40      -1.0410      2.00000
     41      -0.8783      2.00000
     42      -0.4988      2.00000
     43      -0.4067      2.00000
     44      -0.0394      2.00000
     45      -0.0335      2.00000
     46       0.2330      2.00000
     47       0.8556      1.08801
     48       0.8960      0.30229
     49       1.7781      0.00000
     50       3.3884      0.00000
     51       4.1477      0.00000
     52       4.4007      0.00000
     53       4.5742      0.00000
     54       5.0232      0.00000
     55       5.1809      0.00000
     56       5.4259      0.00000
     57       5.7432      0.00000
     58       5.8915      0.00000
     59       5.9727      0.00000
     60       6.1141      0.00000
     61       6.4263      0.00000
     62       6.5724      0.00000
     63       6.7400      0.00000
     64       6.8982      0.00000

 k-point    10 :       0.2308    0.0769   -0.0000
  band No.  band energies     occupation 
      1     -19.5100      2.00000
      2     -18.7876      2.00000
      3     -18.2908      2.00000
      4     -17.8145      2.00000
      5     -17.3501      2.00000
      6     -16.8872      2.00000
      7     -16.4275      2.00000
      8     -15.9738      2.00000
      9     -15.4767      2.00000
     10     -14.5875      2.00000
     11      -8.1270      2.00000
     12      -7.8499      2.00000
     13      -7.2714      2.00000
     14      -6.5460      2.00000
     15      -6.4548      2.00000
     16      -5.6765      2.00000
     17      -5.5792      2.00000
     18      -5.1760      2.00000
     19      -4.7499      2.00000
     20      -4.6759      2.00000
     21      -4.2684      2.00000
     22      -4.2020      2.00000
     23      -3.8343      2.00000
     24      -3.7509      2.00000
     25      -3.6977      2.00000
     26      -3.4109      2.00000
     27      -3.2919      2.00000
     28      -3.2099      2.00000
     29      -2.9622      2.00000
     30      -2.8684      2.00000
     31      -2.7841      2.00000
     32      -2.7024      2.00000
     33      -2.4817      2.00000
     34      -2.2651      2.00000
     35      -2.0369      2.00000
     36      -2.0085      2.00000
     37      -1.7369      2.00000
     38      -1.5526      2.00000
     39      -1.2400      2.00000
     40      -1.2322      2.00000
     41      -1.0882      2.00000
     42      -0.7490      2.00000
     43      -0.6251      2.00000
     44      -0.2359      2.00000
     45      -0.0221      2.00000
     46       0.5706      2.00000
     47       0.7614      1.99446
     48       0.8355      1.50340
     49       1.6095      0.00000
     50       2.0794      0.00000
     51       2.6124      0.00000
     52       2.8533      0.00000
     53       3.6197      0.00000
     54       4.2552      0.00000
     55       4.6422      0.00000
     56       4.8788      0.00000
     57       5.0710      0.00000
[...]
     37      -2.1799      2.00000
     38      -1.8911      2.00000
     39      -1.7986      2.00000
     40      -1.6130      2.00000
     41      -1.5902      2.00000
     42      -1.3369      2.00000
     43      -1.0693      2.00000
     44      -1.0597      2.00000
     45      -0.8549      2.00000
     46      -0.4027      2.00000
     47      -0.3744      2.00000
     48      -0.3106      2.00000
     49       0.6269      2.00000
     50       0.6782      2.00000
     51       0.7708      1.98784
     52       0.9115      0.14153
     53       2.0857      0.00000
     54       2.6284      0.00000
     55       3.6937      0.00000
     56       3.9573      0.00000
     57       4.2928      0.00000
     58       4.5363      0.00000
     59       4.9706      0.00000
     60       5.2027      0.00000
     61       5.8654      0.00000
     62       6.1188      0.00000
     63       6.3291      0.00000
     64       6.6828      0.00000

 k-point    47 :      -0.3846    0.3846   -0.0000
  band No.  band energies     occupation 
      1     -19.3103      2.00000
      2     -18.5571      2.00000
      3     -18.0853      2.00000
      4     -17.6082      2.00000
      5     -17.1439      2.00000
      6     -16.6821      2.00000
      7     -16.2204      2.00000
      8     -15.7687      2.00000
      9     -15.2885      2.00000
     10     -14.4789      2.00000
     11      -7.1035      2.00000
     12      -6.6166      2.00000
     13      -6.5264      2.00000
     14      -6.1401      2.00000
     15      -5.9808      2.00000
     16      -5.7131      2.00000
     17      -5.4119      2.00000
     18      -5.1952      2.00000
     19      -4.9642      2.00000
     20      -4.5655      2.00000
     21      -4.4688      2.00000
     22      -4.3533      2.00000
     23      -4.2008      2.00000
     24      -4.0405      2.00000
     25      -3.6820      2.00000
     26      -3.5418      2.00000
     27      -3.4867      2.00000
     28      -3.1834      2.00000
     29      -3.0668      2.00000
     30      -2.9942      2.00000
     31      -2.9769      2.00000
     32      -2.6398      2.00000
     33      -2.5162      2.00000
     34      -2.2420      2.00000
     35      -2.0531      2.00000
     36      -1.8684      2.00000
     37      -1.7992      2.00000
     38      -1.7043      2.00000
     39      -1.5918      2.00000
     40      -1.5451      2.00000
     41      -1.3998      2.00000
     42      -1.1309      2.00000
     43      -1.0154      2.00000
     44      -0.7564      2.00000
     45      -0.6748      2.00000
     46      -0.3188      2.00000
     47      -0.1640      2.00000
     48       0.0518      2.00000
     49       0.5024      2.00000
     50       0.7586      1.99566
     51       0.7604      1.99495
     52       1.4172      0.00000
     53       2.0825      0.00000
     54       2.8862      0.00000
     55       3.7992      0.00000
     56       4.5429      0.00000
     57       5.0338      0.00000
     58       5.7592      0.00000
     59       5.8285      0.00000
     60       5.9799      0.00000
     61       6.1651      0.00000
     62       6.4747      0.00000
     63       6.7634      0.00000
     64       6.9128      0.00000

 k-point    48 :       0.4615    0.4615   -0.0000
  band No.  band energies     occupation 
      1     -19.1735      2.00000
      2     -18.4291      2.00000
      3     -17.9703      2.00000
      4     -17.4918      2.00000
      5     -17.0275      2.00000
      6     -16.5663      2.00000
      7     -16.1034      2.00000
      8     -15.6523      2.00000
      9     -15.1786      2.00000
     10     -14.4160      2.00000
     11      -7.1193      2.00000
     12      -6.6443      2.00000
     13      -6.2048      2.00000
     14      -5.6780      2.00000
     15      -5.5339      2.00000
     16      -5.1948      2.00000
     17      -4.7851      2.00000
     18      -4.7411      2.00000
     19      -4.3676      2.00000
     20      -4.3395      2.00000
     21      -4.2838      2.00000
     22      -4.1748      2.00000
     23      -3.9476      2.00000
     24      -3.8525      2.00000
     25      -3.8131      2.00000
     26      -3.7586      2.00000
     27      -3.5521      2.00000
     28      -3.2874      2.00000
     29      -3.2237      2.00000
     30      -3.2181      2.00000
     31      -3.1325      2.00000
     32      -3.0575      2.00000
     33      -2.7875      2.00000
     34      -2.5891      2.00000
     35      -2.3488      2.00000
     36      -2.3307      2.00000
     37      -2.1898      2.00000
     38      -2.1619      2.00000
     39      -1.9210      2.00000
     40      -1.8492      2.00000
     41      -1.6483      2.00000
     42      -1.3771      2.00000
     43      -1.3110      2.00000
     44      -1.0901      2.00000
     45      -0.8938      2.00000
     46      -0.7184      2.00000
     47      -0.4024      2.00000
     48      -0.3468      2.00000
     49       0.4182      2.00000
     50       0.6028      2.00000
     51       0.6602      2.00000
     52       0.7576      1.99605
     53       2.1482      0.00000
     54       2.3275      0.00000
     55       3.4890      0.00000
     56       3.8250      0.00000
     57       4.1438      0.00000
     58       4.2718      0.00000
     59       4.8055      0.00000
     60       5.3836      0.00000
     61       5.7762      0.00000
     62       5.8843      0.00000
     63       6.2920      0.00000
     64       6.6661      0.00000

 k-point    49 :      -0.4615    0.4615   -0.0000
  band No.  band energies     occupation 
      1     -19.2046      2.00000
      2     -18.4552      2.00000
      3     -17.9947      2.00000
      4     -17.5165      2.00000
      5     -17.0521      2.00000
      6     -16.5909      2.00000
      7     -16.1282      2.00000
      8     -15.6770      2.00000
      9     -15.2025      2.00000
     10     -14.4311      2.00000
     11      -7.1567      2.00000
     12      -6.6838      2.00000
     13      -6.2344      2.00000
     14      -5.7158      2.00000
     15      -5.5991      2.00000
     16      -5.2224      2.00000
     17      -5.1876      2.00000
     18      -4.7697      2.00000
     19      -4.7182      2.00000
     20      -4.5324      2.00000
     21      -4.3089      2.00000
     22      -4.2088      2.00000
     23      -4.0080      2.00000
     24      -3.8345      2.00000
     25      -3.6338      2.00000
     26      -3.5882      2.00000
     27      -3.5515      2.00000
     28      -3.2464      2.00000
     29      -3.1766      2.00000
     30      -3.1107      2.00000
     31      -3.0583      2.00000
     32      -3.0375      2.00000
     33      -2.6349      2.00000
     34      -2.5804      2.00000
     35      -2.4978      2.00000
     36      -2.2158      2.00000
     37      -2.1172      2.00000
     38      -1.9581      2.00000
     39      -1.9302      2.00000
     40      -1.6728      2.00000
     41      -1.6559      2.00000
     42      -1.5166      2.00000
     43      -1.1950      2.00000
     44      -1.0861      2.00000
     45      -0.7387      2.00000
     46      -0.4984      2.00000
     47      -0.3717      2.00000
     48      -0.2260      2.00000
     49       0.0095      2.00000
     50       0.7134      1.99996
     51       0.7351      1.99956
     52       1.1044      0.00000
     53       1.5589      0.00000
     54       2.7902      0.00000
     55       3.2751      0.00000
     56       4.2799      0.00000
     57       4.6972      0.00000
     58       5.6076      0.00000
     59       5.6243      0.00000
     60       5.9455      0.00000
     61       6.0301      0.00000
     62       6.2860      0.00000
     63       6.5441      0.00000
     64       6.6336      0.00000


--------------------------------------------------------------------------------------------------------


 soft charge-density along one line, spin component           1
         0         1         2         3         4         5         6         7         8         9
 total charge-density along one line
 
 pseudopotential strength for first ion, spin component:           1
 13.119  -0.417  -0.002   0.004   0.001   0.000  -0.000  -0.000
 -0.417   0.098   0.000  -0.001  -0.000  -0.000   0.000   0.000
 -0.002   0.000  -9.553   0.002  -0.014   0.055  -0.000   0.002
  0.004  -0.001   0.002  -9.568  -0.001  -0.000   0.057   0.000
  0.001  -0.000  -0.014  -0.001  -9.570   0.002   0.000   0.057
  0.000  -0.000   0.055  -0.000   0.002   0.201   0.000  -0.000
 -0.000   0.000  -0.000   0.057   0.000   0.000   0.200  -0.000
 -0.000   0.000   0.002   0.000   0.057  -0.000  -0.000   0.200
 total augmentation occupancy for first ion, spin component:           1
  2.000   0.000   0.000   0.000   0.000   0.000   0.000   0.000
  0.000   0.000   0.000   0.000   0.000   0.000   0.000   0.000
  0.000   0.000   1.333  -0.000  -0.000   0.000   0.000   0.000
  0.000   0.000  -0.000   1.333  -0.000   0.000   0.000   0.000
  0.000   0.000  -0.000  -0.000   1.333   0.000   0.000   0.000
  0.000   0.000   0.000   0.000   0.000   0.000   0.000   0.000
  0.000   0.000   0.000   0.000   0.000   0.000   0.000   0.000
  0.000   0.000   0.000   0.000   0.000   0.000   0.000   0.000


------------------------ aborting loop because EDIFF is reached ----------------------------------------


    CHARGE:  cpu time    0.6935: real time    0.6948
    FORLOC:  cpu time    0.0166: real time    0.0166
    FORNL :  cpu time    4.3189: real time    4.3268
    STRESS:  cpu time    6.5197: real time    6.5314
    FORCOR:  cpu time    0.0782: real time    0.0784
    FORHAR:  cpu time    0.0273: real time    0.0273
    OFIELD:  cpu time    0.0004: real time    0.0004

  FORCE on cell =-STRESS in cart. coord.  units (eV):
  Direction    XX          YY          ZZ          XY          YZ          ZX
  --------------------------------------------------------------------------------------
  Alpha Z    26.50962    26.50962    26.50962
  Ewald  166133.98746166091.28448************    36.98196  2389.61767 -1379.64686
  Hartree167351.52603167332.83437************    16.18742  2391.82606 -1380.92179
  E(xc)    -412.80823  -412.81904  -413.13760     0.00936     0.06883    -0.03974
  Local  ************************334015.33969   -50.78812 -4782.33536  2761.08340
  n-local   -44.28305   -51.26738   -44.86783    -1.14159     1.47293     4.09729
  augment    60.64670    60.84327    60.48924    -0.17025     0.05605    -0.03214
  Kinetic  1511.70387  1500.71382  1505.99542    -7.07048     1.51203    -0.79454
  Fock        0.00000     0.00000     0.00000     0.00000     0.00000     0.00000
  -------------------------------------------------------------------------------------
  Total      -1.54437    -1.48734    -1.33364    -0.04938     0.04112    -0.02374
  in kB      -4.60090    -4.43102    -3.97310    -0.14712     0.12249    -0.07072
  external pressure =       -4.34 kB  Pullay stress =        0.00 kB


 VOLUME and BASIS-vectors are now :
 -----------------------------------------------------------------------------
  energy-cutoff  :      520.00
  volume of cell :      537.80
      direct lattice vectors                 reciprocal lattice vectors
     2.595974150 -1.522302603 -0.021631981     0.386753138  0.002606133  0.001563730
    -0.020365814  3.009330567  0.021631976     0.195633548  0.333635020 -0.001563730
    -0.282768370  0.489769182 69.120091079     0.000059813 -0.000103600  0.014468552

  length of vectors
     3.009477520  3.009477225 69.122404635     0.386765080  0.386765118  0.014469047


 FORCES acting on ions
    electron-ion (+dipol)            ewald-force                    non-local-force                 convergence-correction
 -----------------------------------------------------------------------------------------------
   0.799E+01 -.138E+02 0.215E+04   -.757E+01 0.131E+02 -.215E+04   -.430E+00 0.745E+00 -.204E+01   0.803E-02 -.139E-01 -.646E+00
   0.125E+01 -.217E+01 0.288E+03   -.126E+01 0.219E+01 -.285E+03   0.194E-01 -.336E-01 -.192E+01   -.104E-01 0.179E-01 -.578E+00
   -.649E+01 0.112E+02 -.158E+04   0.647E+01 -.112E+02 0.159E+04   0.246E-01 -.426E-01 -.191E+01   -.892E-02 0.155E-01 -.765E+00
   -.142E+02 0.247E+02 -.345E+04   0.144E+02 -.250E+02 0.347E+04   -.192E+00 0.333E+00 -.156E+02   0.118E-01 -.205E-01 -.207E-01
   0.662E+01 -.115E+02 0.154E+04   -.659E+01 0.114E+02 -.153E+04   -.163E-01 0.283E-01 -.186E+01   -.199E-01 0.344E-01 -.736E+00
   0.381E+01 -.660E+01 0.912E+03   -.382E+01 0.662E+01 -.910E+03   0.145E-01 -.251E-01 -.194E+01   -.237E-02 0.411E-02 -.507E+00
   -.132E+01 0.228E+01 -.336E+03   0.131E+01 -.226E+01 0.339E+03   0.233E-01 -.404E-01 -.192E+01   -.129E-01 0.224E-01 -.741E+00
   -.391E+01 0.677E+01 -.961E+03   0.389E+01 -.674E+01 0.963E+03   0.239E-01 -.415E-01 -.191E+01   -.958E-02 0.166E-01 -.699E+00
   -.908E+01 0.157E+02 -.221E+04   0.907E+01 -.157E+02 0.221E+04   0.213E-01 -.369E-01 -.204E+01   -.863E-02 0.150E-01 -.741E+00
   -.117E+02 0.202E+02 -.284E+04   0.117E+02 -.202E+02 0.284E+04   -.110E-02 0.190E-02 -.317E+01   -.576E-02 0.997E-02 -.733E+00
   0.158E+01 -.273E+01 0.406E+03   -.159E+01 0.276E+01 -.405E+03   0.168E-01 -.292E-01 -.140E+01   -.797E-03 0.138E-02 -.202E+00
   -.101E+01 0.175E+01 -.218E+03   0.993E+00 -.172E+01 0.220E+03   0.198E-01 -.343E-01 -.139E+01   -.914E-03 0.158E-02 -.229E+00
   -.362E+01 0.628E+01 -.844E+03   0.360E+01 -.624E+01 0.846E+03   0.261E-01 -.452E-01 -.160E+01   -.935E-03 0.162E-02 -.233E+00
   0.379E+01 -.656E+01 0.615E+03   -.336E+01 0.582E+01 -.613E+03   -.427E+00 0.740E+00 -.143E+01   -.947E-03 0.164E-02 -.229E+00
   0.733E+00 -.127E+01 0.198E+03   -.745E+00 0.129E+01 -.196E+03   0.138E-01 -.239E-01 -.139E+01   -.784E-03 0.136E-02 -.192E+00
   -.135E+00 0.233E+00 -.100E+02   0.120E+00 -.208E+00 0.116E+02   0.154E-01 -.267E-01 -.139E+01   -.859E-03 0.149E-02 -.216E+00
   -.187E+01 0.325E+01 -.426E+03   0.186E+01 -.321E+01 0.428E+03   0.207E-01 -.358E-01 -.139E+01   -.938E-03 0.162E-02 -.233E+00
   -.274E+01 0.475E+01 -.634E+03   0.272E+01 -.472E+01 0.636E+03   0.230E-01 -.399E-01 -.142E+01   -.937E-03 0.162E-02 -.232E+00
   -.463E+01 0.802E+01 -.106E+04   0.458E+01 -.792E+01 0.106E+04   0.552E-01 -.957E-01 -.292E+01   -.643E-03 0.111E-02 -.132E+00
   0.482E+01 -.835E+01 0.118E+04   -.484E+01 0.838E+01 -.118E+04   0.184E-01 -.319E-01 -.145E+01   0.825E-03 -.143E-02 0.198E+00
   0.503E+01 -.872E+01 0.122E+04   -.502E+01 0.870E+01 -.122E+04   -.895E-02 0.155E-01 0.956E-02   0.847E-04 -.147E-03 0.232E-01
   0.554E+01 -.960E+01 0.124E+04   -.564E+01 0.976E+01 -.124E+04   0.960E-01 -.166E+00 0.504E+01   -.102E-02 0.176E-02 -.268E+00
   0.495E+01 -.857E+01 0.121E+04   -.498E+01 0.862E+01 -.121E+04   0.299E-01 -.518E-01 0.766E-01   0.448E-03 -.776E-03 0.108E+00
   0.523E+01 -.906E+01 0.125E+04   -.527E+01 0.913E+01 -.125E+04   0.375E-01 -.649E-01 -.196E+00   -.674E-03 0.117E-02 -.166E+00
   0.497E+01 -.860E+01 0.120E+04   -.495E+01 0.858E+01 -.120E+04   -.134E-01 0.233E-01 -.106E-01   0.654E-03 -.113E-02 0.157E+00
   0.505E+01 -.874E+01 0.123E+04   -.507E+01 0.878E+01 -.123E+04   0.233E-01 -.403E-01 0.757E-01   -.315E-03 0.546E-03 -.668E-01
 -----------------------------------------------------------------------------------------------
   0.635E+00 -.110E+01 0.532E+02   -.142E-13 0.178E-14 -.909E-12   -.567E+00 0.982E+00 -.451E+02   -.663E-01 0.115E+00 -.808E+01
 
 
 POSITION                                       TOTAL-FORCE (eV/Angst)
 -----------------------------------------------------------------------------------
      1.10219      1.06500     30.94814         0.003384     -0.005862     -0.001956
      1.16735      0.95215     38.31757        -0.002028      0.003512      0.008958
      1.17244      0.94333     45.70277        -0.001531      0.002651     -0.004445
      1.18197      0.92683     52.90389         0.004116     -0.007130     -0.015589
      2.03199     -0.54545     33.38552        -0.005166      0.008947     -0.001452
      0.29120      2.46968     35.87251        -0.000547      0.000947      0.000599
      2.04221     -0.56315     40.76685        -0.002653      0.004595     -0.012222
      0.29932      2.45563     43.25617        -0.001525      0.002641     -0.000033
      2.04555     -0.56893     48.14520        -0.000956      0.001655     -0.013749
      0.30408      2.44737     50.60632        -0.000784      0.001359     -0.012190
      1.15762      0.96900     34.70847         0.000665     -0.001153     -0.009767
      1.16628      0.95400     42.08992         0.000949     -0.001645     -0.001514
      1.16948      0.94846     49.47322         0.003024     -0.005237     -0.007202
      0.28444      2.48139     32.26286        -0.004223      0.007315      0.013660
      2.03366     -0.54835     37.15187         0.000302     -0.000522      0.018465
      0.29256      2.46733     39.64250        -0.000119      0.000206      0.003734
      2.03947     -0.55841     44.53623         0.001160     -0.002010      0.003714
      0.29602      2.46134     47.02645         0.001967     -0.003407     -0.020379
      2.04264     -0.56389     51.96144        -0.001563      0.002708      0.020286
      2.33955     -1.07816     16.24891         0.001541     -0.002670     -0.000455
      2.36563     -1.12334     22.91722         0.001000     -0.001732      0.004379
      2.37093     -1.13252     29.54398         0.001486     -0.002573      0.010199
      1.48230      0.40664     20.71785         0.001244     -0.002155      0.003724
      1.55520      0.28037     27.40038        -0.002339      0.004052     -0.006582
      0.60644      1.92367     18.52483         0.001813     -0.003140      0.006230
      0.64221      1.86171     25.17830         0.000781     -0.001353      0.013586
 -----------------------------------------------------------------------------------
    total drift:                                0.002004     -0.003490      0.009722


--------------------------------------------------------------------------------------------------------



  FREE ENERGIE OF THE ION-ELECTRON SYSTEM (eV)
  ---------------------------------------------------
  free  energy   TOTEN  =      -138.01401738 eV

  energy  without entropy=     -137.99493485  energy(sigma->0) =     -138.00447612
 


--------------------------------------------------------------------------------------------------------


    POTLOK:  cpu time    0.2092: real time    0.2097


--------------------------------------------------------------------------------------------------------


 stress matrix after NEB project (eV)
     -1.54437     -0.04938     -0.02374
     -0.04938     -1.48734      0.04112
     -0.02374      0.04112     -1.33364
  FORCES: max atom, RMS     0.020755    0.011220
  FORCE total and by dimension    0.057213    0.020379
  Stress total and by dimension    2.526901    1.544366
     LOOP+:  cpu time  173.2964: real time  173.8253
    4ORBIT:  cpu time    0.0000: real time    0.0000

 total amount of memory used by VASP MPI-rank0   150905. kBytes
=======================================================================

   base      :      30000. kBytes
   nonl-proj :      36073. kBytes
   fftplans  :      24968. kBytes
   grid      :      13079. kBytes
   one-center:         21. kBytes
   wavefun   :      46764. kBytes
 
  
  
 General timing and accounting informations for this job:
 ========================================================
  
                  Total CPU time used (sec):      190.722
                            User time (sec):      187.085
                          System time (sec):        3.637
                         Elapsed time (sec):      191.292
  
                   Maximum memory used (kb):      211464.
                   Average memory used (kb):           0.
  
                          Minor page faults:       135701
                          Major page faults:            0
                 Voluntary context switches:          143
