       N       E                     dE             d eps       ncg     rms          rms(c)
DAV:   1     0.555223034925E+03    0.55522E+03   -0.44804E+04  2788   0.134E+03
DAV:   2    -0.891199937012E+02   -0.64434E+03   -0.60913E+03  3600   0.259E+02
DAV:   3    -0.159539541371E+03   -0.70420E+02   -0.70019E+02  3232   0.925E+01
DAV:   4    -0.160913459880E+03   -0.13739E+01   -0.13712E+01  3224   0.140E+01
DAV:   5    -0.160945940999E+03   -0.32481E-01   -0.32457E-01  3408   0.210E+00    0.232E+01
DAV:   6    -0.144414385438E+03    0.16532E+02   -0.92944E+01  3136   0.302E+01    0.775E+00
DAV:   7    -0.144258992774E+03    0.15539E+00   -0.18914E+00  3014   0.508E+00    0.478E+00
DAV:   8    -0.144196448969E+03    0.62544E-01   -0.67490E-01  3070   0.366E+00    0.118E+00
DAV:   9    -0.144120995048E+03    0.75454E-01   -0.19091E-01  3122   0.118E+00    0.605E-01
DAV:  10    -0.144117105457E+03    0.38896E-02   -0.36746E-02  3334   0.857E-01    0.249E-01
DAV:  11    -0.144120511208E+03   -0.34058E-02   -0.10584E-02  3146   0.403E-01    0.194E-01
DAV:  12    -0.144120936092E+03   -0.42488E-03   -0.13254E-03  3656   0.212E-01    0.110E-01
DAV:  13    -0.144120969638E+03   -0.33546E-04   -0.22472E-03  3072   0.211E-01    0.356E-02
DAV:  14    -0.144120998133E+03   -0.28495E-04   -0.24434E-04  3042   0.716E-02    0.184E-02
DAV:  15    -0.144121042127E+03   -0.43994E-04   -0.12748E-04  3020   0.474E-02    0.137E-02
DAV:  16    -0.144121057131E+03   -0.15004E-04   -0.20623E-05  2384   0.336E-02    0.904E-03
DAV:  17    -0.144121074118E+03   -0.16986E-04   -0.57089E-05  2706   0.619E-02    0.764E-03
DAV:  18    -0.144121081364E+03   -0.72464E-05   -0.25009E-05  2552   0.369E-02
   1 F= -.14412108E+03 E0= -.14411706E+03  d E =-.144121E+03
       N       E                     dE             d eps       ncg     rms          rms(c)
DAV:   1    -0.144122618125E+03   -0.15440E-02   -0.16144E-02  2826   0.547E-01    0.436E-02
DAV:   2    -0.144122622336E+03   -0.42115E-05   -0.93047E-04  3212   0.150E-01    0.338E-02
DAV:   3    -0.144122542228E+03    0.80108E-04   -0.17672E-04  3050   0.501E-02    0.205E-02
DAV:   4    -0.144122534132E+03    0.80963E-05   -0.14019E-05  2486   0.150E-02    0.157E-02
DAV:   5    -0.144122526217E+03    0.79147E-05   -0.28261E-05  2698   0.360E-02    0.666E-03
DAV:   6    -0.144122530671E+03   -0.44534E-05   -0.17812E-05  2320   0.424E-02
   2 F= -.14412253E+03 E0= -.14411860E+03  d E =-.144931E-02
       N       E                     dE             d eps       ncg     rms          rms(c)
DAV:   1    -0.144123502162E+03   -0.97595E-03   -0.17259E-02  2814   0.562E-01    0.390E-02
DAV:   2    -0.144123510206E+03   -0.80436E-05   -0.90936E-04  3236   0.137E-01    0.348E-02
DAV:   3    -0.144123423657E+03    0.86549E-04   -0.13188E-04  3052   0.436E-02    0.203E-02
DAV:   4    -0.144123416253E+03    0.74034E-05   -0.14215E-05  2464   0.150E-02    0.164E-02
DAV:   5    -0.144123403884E+03    0.12369E-04   -0.19989E-05  2354   0.301E-02    0.823E-03
DAV:   6    -0.144123403973E+03   -0.88896E-07   -0.28075E-05  2724   0.456E-02
   3 F= -.14412340E+03 E0= -.14411954E+03  d E =-.232261E-02
       N       E                     dE             d eps       ncg     rms          rms(c)
DAV:   1    -0.144123736288E+03   -0.33240E-03   -0.69432E-02  2866   0.112E+00    0.777E-02
DAV:   2    -0.144123699499E+03    0.36789E-04   -0.33403E-03  3244   0.259E-01    0.663E-02
DAV:   3    -0.144123360895E+03    0.33860E-03   -0.50369E-04  3092   0.837E-02    0.382E-02
DAV:   4    -0.144123320493E+03    0.40403E-04   -0.60769E-05  3104   0.298E-02    0.301E-02
DAV:   5    -0.144123249016E+03    0.71477E-04   -0.65002E-05  3068   0.489E-02    0.156E-02
DAV:   6    -0.144123205516E+03    0.43500E-04   -0.10243E-04  3176   0.793E-02    0.951E-03
DAV:   7    -0.144123208647E+03   -0.31311E-05   -0.77541E-05  3064   0.569E-02
   4 F= -.14412321E+03 E0= -.14411944E+03  d E =-.212728E-02
       N       E                     dE             d eps       ncg     rms          rms(c)
DAV:   1    -0.144123833109E+03   -0.62759E-03   -0.22602E-02  2842   0.631E-01    0.442E-02
DAV:   2    -0.144123831046E+03    0.20623E-05   -0.10308E-03  3238   0.143E-01    0.374E-02
DAV:   3    -0.144123721642E+03    0.10940E-03   -0.16984E-04  3006   0.463E-02    0.214E-02
DAV:   4    -0.144123712048E+03    0.95944E-05   -0.18708E-05  2568   0.155E-02    0.166E-02
DAV:   5    -0.144123701945E+03    0.10103E-04   -0.24269E-05  2622   0.241E-02    0.738E-03
DAV:   6    -0.144123704570E+03   -0.26251E-05   -0.20507E-05  2462   0.314E-02
   5 F= -.14412370E+03 E0= -.14411989E+03  d E =-.262321E-02
       N       E                     dE             d eps       ncg     rms          rms(c)
DAV:   1    -0.144124413007E+03   -0.71106E-03   -0.19072E-02  2836   0.594E-01    0.244E-02
DAV:   2    -0.144124460294E+03   -0.47287E-04   -0.53033E-04  3070   0.878E-02    0.170E-02
DAV:   3    -0.144124440282E+03    0.20012E-04   -0.24002E-05  2252   0.159E-02    0.866E-03
DAV:   4    -0.144124441546E+03   -0.12638E-05   -0.30207E-06  1772   0.978E-03    0.645E-03
DAV:   5    -0.144124449138E+03   -0.75920E-05   -0.32640E-06  1822   0.203E-02    0.215E-03
DAV:   6    -0.144124456124E+03   -0.69860E-05   -0.44946E-06  1660   0.151E-02
   6 F= -.14412446E+03 E0= -.14412065E+03  d E =-.751553E-03
       N       E                     dE             d eps       ncg     rms          rms(c)
DAV:   1    -0.144126038101E+03   -0.15890E-02   -0.17319E-01  2824   0.179E+00    0.751E-02
DAV:   2    -0.144126419291E+03   -0.38119E-03   -0.49171E-03  3062   0.266E-01    0.543E-02
DAV:   3    -0.144126201346E+03    0.21795E-03   -0.23284E-04  3008   0.534E-02    0.271E-02
DAV:   4    -0.144126185923E+03    0.15422E-04   -0.36352E-05  2868   0.332E-02    0.206E-02
DAV:   5    -0.144126171167E+03    0.14757E-04   -0.10257E-05  1884   0.402E-02    0.109E-02
DAV:   6    -0.144126159255E+03    0.11912E-04   -0.24090E-05  2422   0.616E-02    0.439E-03
DAV:   7    -0.144126157306E+03    0.19486E-05   -0.30010E-05  2392   0.458E-02
   7 F= -.14412616E+03 E0= -.14412235E+03  d E =-.245274E-02
       N       E                     dE             d eps       ncg     rms          rms(c)
DAV:   1    -0.144127008192E+03   -0.84894E-03   -0.69231E-01  2832   0.358E+00    0.151E-01
DAV:   2    -0.144128500451E+03   -0.14923E-02   -0.19546E-02  3044   0.533E-01    0.109E-01
DAV:   3    -0.144127646047E+03    0.85440E-03   -0.86251E-04  3054   0.108E-01    0.555E-02
DAV:   4    -0.144127556022E+03    0.90025E-04   -0.14816E-04  3418   0.683E-02    0.418E-02
DAV:   5    -0.144127465433E+03    0.90589E-04   -0.40512E-05  2916   0.825E-02    0.230E-02
DAV:   6    -0.144127361866E+03    0.10357E-03   -0.10194E-04  3570   0.132E-01    0.975E-03
DAV:   7    -0.144127321622E+03    0.40244E-04   -0.11393E-04  2986   0.877E-02    0.102E-02
DAV:   8    -0.144127260574E+03    0.61049E-04   -0.11206E-05  2106   0.921E-02    0.732E-03
DAV:   9    -0.144127123393E+03    0.13718E-03   -0.14887E-04  3796   0.271E-01    0.109E-02
DAV:  10    -0.144127108152E+03    0.15241E-04   -0.19823E-04  3048   0.101E-01    0.615E-03
DAV:  11    -0.144127085368E+03    0.22785E-04   -0.65228E-05  3310   0.200E-01    0.498E-03
DAV:  12    -0.144127101585E+03   -0.16218E-04   -0.14699E-04  3080   0.115E-01    0.978E-03
DAV:  13    -0.144127114524E+03   -0.12938E-04   -0.14666E-04  2842   0.439E-02    0.111E-02
DAV:  14    -0.144127112108E+03    0.24159E-05   -0.62247E-06  1788   0.232E-02
   8 F= -.14412711E+03 E0= -.14412321E+03  d E =-.340754E-02
       N       E                     dE             d eps       ncg     rms          rms(c)
DAV:   1    -0.144128062885E+03   -0.94836E-03   -0.16959E-01  2916   0.175E+00    0.638E-02
DAV:   2    -0.144128425842E+03   -0.36296E-03   -0.43210E-03  3064   0.254E-01    0.367E-02
DAV:   3    -0.144128372875E+03    0.52968E-04   -0.10116E-04  3050   0.390E-02    0.259E-02
DAV:   4    -0.144128355696E+03    0.17179E-04   -0.20277E-05  2148   0.232E-02    0.176E-02
DAV:   5    -0.144128334946E+03    0.20750E-04   -0.41423E-05  2734   0.442E-02    0.696E-03
DAV:   6    -0.144128332225E+03    0.27205E-05   -0.19443E-05  2106   0.242E-02
   9 F= -.14412833E+03 E0= -.14412433E+03  d E =-.122012E-02
       N       E                     dE             d eps       ncg     rms          rms(c)
DAV:   1    -0.144127495680E+03    0.83927E-03   -0.15273E+00  2900   0.525E+00    0.185E-01
DAV:   2    -0.144130746864E+03   -0.32512E-02   -0.39172E-02  3030   0.765E-01    0.108E-01
DAV:   3    -0.144130369527E+03    0.37734E-03   -0.83024E-04  3146   0.111E-01    0.803E-02
DAV:   4    -0.144130193727E+03    0.17580E-03   -0.18647E-04  3286   0.699E-02    0.563E-02
DAV:   5    -0.144129960219E+03    0.23351E-03   -0.30484E-04  3222   0.132E-01    0.208E-02
DAV:   6    -0.144129897609E+03    0.62611E-04   -0.18821E-04  3218   0.823E-02    0.206E-02
DAV:   7    -0.144129839087E+03    0.58521E-04   -0.69055E-05  3020   0.564E-02    0.104E-02
DAV:   8    -0.144129734463E+03    0.10462E-03   -0.17553E-05  2260   0.944E-02    0.108E-02
DAV:   9    -0.144129584222E+03    0.15024E-03   -0.69976E-05  3362   0.155E-01    0.940E-03
DAV:  10    -0.144129389694E+03    0.19453E-03   -0.18028E-04  4198   0.273E-01    0.927E-03
DAV:  11    -0.144129251718E+03    0.13798E-03   -0.40163E-04  4230   0.430E-01    0.968E-03
DAV:  12    -0.144129322248E+03   -0.70530E-04   -0.74870E-04  3104   0.996E-02    0.161E-02
DAV:  13    -0.144129325938E+03   -0.36902E-05   -0.55997E-05  2748   0.255E-02
  10 F= -.14412933E+03 E0= -.14412503E+03  d E =-.221383E-02
       N       E                     dE             d eps       ncg     rms          rms(c)
DAV:   1    -0.144129328271E+03   -0.60236E-05   -0.77594E-02  2904   0.118E+00    0.507E-02
DAV:   2    -0.144129491799E+03   -0.16353E-03   -0.21227E-03  3048   0.178E-01    0.257E-02
DAV:   3    -0.144129469652E+03    0.22146E-04   -0.50340E-05  2884   0.315E-02    0.185E-02
DAV:   4    -0.144129459088E+03    0.10564E-04   -0.16181E-05  2034   0.203E-02    0.119E-02
DAV:   5    -0.144129446620E+03    0.12468E-04   -0.17841E-05  2006   0.280E-02    0.517E-03
DAV:   6    -0.144129443723E+03    0.28979E-05   -0.90511E-06  1630   0.185E-02
  11 F= -.14412944E+03 E0= -.14412522E+03  d E =-.233161E-02
       N       E                     dE             d eps       ncg     rms          rms(c)
DAV:   1    -0.144130349942E+03   -0.90332E-03   -0.76927E-02  2784   0.116E+00    0.413E-02
DAV:   2    -0.144130478392E+03   -0.12845E-03   -0.18007E-03  3100   0.168E-01    0.219E-02
DAV:   3    -0.144130466790E+03    0.11602E-04   -0.44594E-05  3096   0.319E-02    0.170E-02
DAV:   4    -0.144130457513E+03    0.92772E-05   -0.20056E-05  2064   0.268E-02    0.891E-03
DAV:   5    -0.144130449085E+03    0.84272E-05   -0.16061E-05  1920   0.297E-02    0.814E-03
DAV:   6    -0.144130447097E+03    0.19883E-05   -0.87721E-06  1638   0.164E-02
  12 F= -.14413045E+03 E0= -.14412620E+03  d E =-.100337E-02
       N       E                     dE             d eps       ncg     rms          rms(c)
DAV:   1    -0.144131376509E+03   -0.92742E-03   -0.69125E-01  2772   0.349E+00    0.122E-01
DAV:   2    -0.144132579104E+03   -0.12026E-02   -0.16179E-02  3100   0.498E-01    0.679E-02
DAV:   3    -0.144132482045E+03    0.97059E-04   -0.33961E-04  3230   0.941E-02    0.517E-02
DAV:   4    -0.144132430904E+03    0.51142E-04   -0.21148E-04  3174   0.772E-02    0.281E-02
DAV:   5    -0.144132384704E+03    0.46200E-04   -0.10746E-04  3256   0.712E-02    0.209E-02
DAV:   6    -0.144132376755E+03    0.79484E-05   -0.50968E-05  2860   0.373E-02
  13 F= -.14413238E+03 E0= -.14412808E+03  d E =-.293303E-02
       N       E                     dE             d eps       ncg     rms          rms(c)
DAV:   1    -0.144127184943E+03    0.51998E-02   -0.27642E+00  2772   0.699E+00    0.245E-01
DAV:   2    -0.144132031670E+03   -0.48467E-02   -0.65449E-02  3098   0.995E-01    0.139E-01
DAV:   3    -0.144131629205E+03    0.40247E-03   -0.13455E-03  3234   0.191E-01    0.105E-01
DAV:   4    -0.144131385214E+03    0.24399E-03   -0.11568E-03  3216   0.187E-01    0.511E-02
DAV:   5    -0.144131259019E+03    0.12619E-03   -0.45080E-04  3260   0.132E-01    0.480E-02
DAV:   6    -0.144131228320E+03    0.30700E-04   -0.20146E-04  3110   0.690E-02    0.366E-02
DAV:   7    -0.144131181564E+03    0.46755E-04   -0.12253E-04  3076   0.549E-02    0.154E-02
DAV:   8    -0.144131119699E+03    0.61865E-04   -0.20112E-05  2392   0.770E-02    0.915E-03
DAV:   9    -0.144131054758E+03    0.64941E-04   -0.39708E-05  3074   0.991E-02    0.748E-03
DAV:  10    -0.144130941305E+03    0.11345E-03   -0.13006E-04  4290   0.220E-01    0.163E-02
DAV:  11    -0.144130920326E+03    0.20979E-04   -0.15849E-04  2978   0.770E-02    0.182E-02
DAV:  12    -0.144130879391E+03    0.40936E-04   -0.22705E-05  2380   0.100E-01    0.113E-02
DAV:  13    -0.144130843252E+03    0.36139E-04   -0.10784E-04  3834   0.180E-01    0.756E-03
DAV:  14    -0.144130856815E+03   -0.13563E-04   -0.16599E-04  2872   0.431E-02    0.105E-02
DAV:  15    -0.144130855355E+03    0.14594E-05   -0.76092E-06  1788   0.144E-02
  14 F= -.14413086E+03 E0= -.14412643E+03  d E =-.141163E-02
       N       E                     dE             d eps       ncg     rms          rms(c)
DAV:   1    -0.144130823983E+03    0.32832E-04   -0.12501E+00  2772   0.468E+00    0.161E-01
DAV:   2    -0.144132952853E+03   -0.21289E-02   -0.28776E-02  3110   0.660E-01    0.886E-02
DAV:   3    -0.144132792565E+03    0.16029E-03   -0.60542E-04  3240   0.120E-01    0.668E-02
DAV:   4    -0.144132718161E+03    0.74403E-04   -0.28701E-04  3168   0.879E-02    0.398E-02
DAV:   5    -0.144132643481E+03    0.74681E-04   -0.18152E-04  3266   0.891E-02    0.229E-02
DAV:   6    -0.144132633622E+03    0.98584E-05   -0.75241E-05  2982   0.442E-02
  15 F= -.14413263E+03 E0= -.14412827E+03  d E =-.318990E-02
       N       E                     dE             d eps       ncg     rms          rms(c)
DAV:   1    -0.144133186725E+03   -0.54324E-03   -0.46342E-02  2824   0.913E-01    0.295E-02
DAV:   2    -0.144133274361E+03   -0.87636E-04   -0.10945E-03  3042   0.133E-01    0.196E-02
DAV:   3    -0.144133259835E+03    0.14526E-04   -0.34419E-05  2672   0.278E-02    0.138E-02
DAV:   4    -0.144133253021E+03    0.68135E-05   -0.57090E-06  1766   0.137E-02    0.981E-03
DAV:   5    -0.144133239967E+03    0.13054E-04   -0.55651E-06  1790   0.309E-02    0.473E-03
DAV:   6    -0.144133231558E+03    0.84086E-05   -0.80164E-06  1872   0.293E-02
  16 F= -.14413323E+03 E0= -.14412889E+03  d E =-.597936E-03
       N       E                     dE             d eps       ncg     rms          rms(c)
DAV:   1    -0.144134167687E+03   -0.92772E-03   -0.41590E-01  2812   0.274E+00    0.895E-02
DAV:   2    -0.144134996561E+03   -0.82887E-03   -0.95987E-03  2962   0.383E-01    0.511E-02
DAV:   3    -0.144134933756E+03    0.62804E-04   -0.14558E-04  3272   0.546E-02    0.362E-02
DAV:   4    -0.144134906805E+03    0.26951E-04   -0.42909E-05  2992   0.311E-02    0.249E-02
DAV:   5    -0.144134872834E+03    0.33972E-04   -0.42796E-05  2790   0.585E-02    0.756E-03
DAV:   6    -0.144134864813E+03    0.80209E-05   -0.34207E-05  2730   0.402E-02
  17 F= -.14413486E+03 E0= -.14413057E+03  d E =-.223119E-02
       N       E                     dE             d eps       ncg     rms          rms(c)
DAV:   1    -0.144134182026E+03    0.69081E-03   -0.16650E+00  2804   0.549E+00    0.181E-01
DAV:   2    -0.144137479306E+03   -0.32973E-02   -0.38317E-02  2934   0.768E-01    0.971E-02
DAV:   3    -0.144137268431E+03    0.21088E-03   -0.58253E-04  3272   0.110E-01    0.694E-02
DAV:   4    -0.144137180512E+03    0.87919E-04   -0.17398E-04  3096   0.643E-02    0.470E-02
DAV:   5    -0.144137075416E+03    0.10510E-03   -0.16361E-04  3228   0.109E-01    0.145E-02
DAV:   6    -0.144137061164E+03    0.14252E-04   -0.12444E-04  3030   0.640E-02    0.138E-02
DAV:   7    -0.144137044487E+03    0.16677E-04   -0.33508E-05  2560   0.379E-02    0.713E-03
DAV:   8    -0.144137024377E+03    0.20110E-04   -0.28094E-06  1854   0.396E-02    0.507E-03
DAV:   9    -0.144136978814E+03    0.45563E-04   -0.15016E-05  2198   0.892E-02    0.510E-03
DAV:  10    -0.144136925419E+03    0.53395E-04   -0.72641E-05  3538   0.156E-01    0.154E-02
DAV:  11    -0.144136900327E+03    0.25092E-04   -0.95802E-05  3666   0.155E-01    0.207E-02
DAV:  12    -0.144136893458E+03    0.68691E-05   -0.13968E-04  3034   0.988E-02    0.115E-02
DAV:  13    -0.144136901377E+03   -0.79186E-05   -0.92231E-05  2740   0.321E-02
  18 F= -.14413690E+03 E0= -.14413272E+03  d E =-.426775E-02
       N       E                     dE             d eps       ncg     rms          rms(c)
DAV:   1    -0.144124596512E+03    0.12297E-01   -0.66558E+00  2804   0.109E+01    0.362E-01
DAV:   2    -0.144137942651E+03   -0.13346E-01   -0.15487E-01  2932   0.152E+00    0.195E-01
DAV:   3    -0.144137179125E+03    0.76353E-03   -0.23608E-03  3294   0.210E-01    0.138E-01
DAV:   4    -0.144136883767E+03    0.29536E-03   -0.80395E-04  3084   0.139E-01    0.862E-02
DAV:   5    -0.144136620288E+03    0.26348E-03   -0.64528E-04  3220   0.176E-01    0.316E-02
DAV:   6    -0.144136612220E+03    0.80677E-05   -0.34050E-04  3100   0.862E-02    0.291E-02
DAV:   7    -0.144136583455E+03    0.28765E-04   -0.88800E-05  2982   0.465E-02    0.123E-02
DAV:   8    -0.144136554892E+03    0.28563E-04   -0.70120E-06  1892   0.494E-02    0.809E-03
DAV:   9    -0.144136515303E+03    0.39590E-04   -0.11851E-05  2180   0.706E-02    0.577E-03
DAV:  10    -0.144136455185E+03    0.60118E-04   -0.47884E-05  3170   0.124E-01    0.864E-03
DAV:  11    -0.144136372950E+03    0.82235E-04   -0.12339E-04  3922   0.219E-01    0.125E-02
DAV:  12    -0.144136372301E+03    0.64857E-06   -0.18388E-04  3200   0.102E-01    0.198E-02
DAV:  13    -0.144136377107E+03   -0.48057E-05   -0.12432E-04  2816   0.435E-02    0.144E-02
DAV:  14    -0.144136373791E+03    0.33163E-05   -0.14195E-05  2016   0.468E-02
  19 F= -.14413637E+03 E0= -.14413230E+03  d E =-.374017E-02
       N       E                     dE             d eps       ncg     rms          rms(c)
DAV:   1    -0.144133570677E+03    0.28064E-02   -0.21865E+00  2804   0.619E+00    0.212E-01
DAV:   2    -0.144137994824E+03   -0.44241E-02   -0.51353E-02  2952   0.862E-01    0.113E-01
DAV:   3    -0.144137738091E+03    0.25673E-03   -0.73328E-04  3272   0.121E-01    0.803E-02
DAV:   4    -0.144137634579E+03    0.10351E-03   -0.27276E-04  3092   0.782E-02    0.515E-02
DAV:   5    -0.144137534947E+03    0.99633E-04   -0.22596E-04  3238   0.106E-01    0.174E-02
DAV:   6    -0.144137532092E+03    0.28544E-05   -0.12085E-04  3040   0.526E-02    0.162E-02
DAV:   7    -0.144137521482E+03    0.10610E-04   -0.36209E-05  2564   0.316E-02    0.733E-03
DAV:   8    -0.144137512993E+03    0.84887E-05   -0.26218E-06  1744   0.275E-02
  20 F= -.14413751E+03 E0= -.14413341E+03  d E =-.487937E-02
       N       E                     dE             d eps       ncg     rms          rms(c)
DAV:   1    -0.144139037414E+03   -0.15159E-02   -0.42039E-01  2772   0.276E+00    0.101E-01
DAV:   2    -0.144139906938E+03   -0.86952E-03   -0.10589E-02  3020   0.401E-01    0.517E-02
DAV:   3    -0.144139844803E+03    0.62136E-04   -0.26457E-04  3266   0.732E-02    0.389E-02
DAV:   4    -0.144139811064E+03    0.33739E-04   -0.47957E-05  2804   0.351E-02    0.259E-02
DAV:   5    -0.144139752816E+03    0.58248E-04   -0.54523E-05  3038   0.615E-02    0.124E-02
DAV:   6    -0.144139731115E+03    0.21701E-04   -0.26586E-05  2406   0.476E-02    0.112E-02
DAV:   7    -0.144139694850E+03    0.36265E-04   -0.39143E-05  2700   0.802E-02    0.678E-03
DAV:   8    -0.144139675982E+03    0.18868E-04   -0.37101E-05  2520   0.451E-02    0.778E-03
DAV:   9    -0.144139637810E+03    0.38172E-04   -0.38862E-05  2892   0.723E-02    0.132E-02
DAV:  10    -0.144139578779E+03    0.59031E-04   -0.10077E-04  3802   0.191E-01    0.259E-02
DAV:  11    -0.144139554483E+03    0.24296E-04   -0.16301E-04  3484   0.118E-01    0.784E-03
DAV:  12    -0.144139568097E+03   -0.13614E-04   -0.16556E-04  2762   0.448E-02    0.152E-02
DAV:  13    -0.144139567518E+03    0.57904E-06   -0.37373E-06  1632   0.790E-03
  21 F= -.14413957E+03 E0= -.14413560E+03  d E =-.205452E-02
       N       E                     dE             d eps       ncg     rms          rms(c)
DAV:   1    -0.144139284614E+03    0.28348E-03   -0.94793E-01  2772   0.417E+00    0.150E-01
DAV:   2    -0.144141270663E+03   -0.19860E-02   -0.23554E-02  3028   0.601E-01    0.773E-02
DAV:   3    -0.144141152433E+03    0.11823E-03   -0.57075E-04  3250   0.103E-01    0.566E-02
DAV:   4    -0.144141100768E+03    0.51665E-04   -0.10557E-04  3056   0.455E-02    0.371E-02
DAV:   5    -0.144141037069E+03    0.63700E-04   -0.97535E-05  3156   0.627E-02    0.164E-02
DAV:   6    -0.144141017605E+03    0.19463E-04   -0.39007E-05  2914   0.534E-02    0.129E-02
DAV:   7    -0.144140994246E+03    0.23360E-04   -0.46484E-05  2606   0.684E-02    0.765E-03
DAV:   8    -0.144140980738E+03    0.13508E-04   -0.30217E-05  2534   0.392E-02    0.720E-03
DAV:   9    -0.144140957852E+03    0.22886E-04   -0.87479E-06  1934   0.428E-02    0.601E-03
DAV:  10    -0.144140912695E+03    0.45157E-04   -0.39678E-05  2898   0.119E-01    0.124E-02
DAV:  11    -0.144140879549E+03    0.33146E-04   -0.77564E-05  3398   0.147E-01    0.583E-03
DAV:  12    -0.144140879845E+03   -0.29682E-06   -0.14042E-04  3712   0.127E-01    0.151E-02
DAV:  13    -0.144140876754E+03    0.30912E-05   -0.75416E-05  2774   0.389E-02
  22 F= -.14414088E+03 E0= -.14413705E+03  d E =-.336376E-02
       N       E                     dE             d eps       ncg     rms          rms(c)
DAV:   1    -0.144141822327E+03   -0.94248E-03   -0.60344E-01  2788   0.335E+00    0.108E-01
DAV:   2    -0.144143134301E+03   -0.13120E-02   -0.14492E-02  3068   0.473E-01    0.625E-02
DAV:   3    -0.144143039163E+03    0.95137E-04   -0.18399E-04  3240   0.637E-02    0.435E-02
DAV:   4    -0.144143008491E+03    0.30673E-04   -0.80266E-05  3106   0.414E-02    0.267E-02
DAV:   5    -0.144142977608E+03    0.30883E-04   -0.57362E-05  2970   0.499E-02    0.884E-03
DAV:   6    -0.144142977167E+03    0.44106E-06   -0.34531E-05  2616   0.309E-02
  23 F= -.14414298E+03 E0= -.14413923E+03  d E =-.210041E-02
       N       E                     dE             d eps       ncg     rms          rms(c)
DAV:   1    -0.144140393496E+03    0.25841E-02   -0.21885E+00  2780   0.638E+00    0.208E-01
DAV:   2    -0.144145164421E+03   -0.47709E-02   -0.52846E-02  3074   0.905E-01    0.118E-01
DAV:   3    -0.144144816227E+03    0.34819E-03   -0.67184E-04  3222   0.123E-01    0.823E-02
DAV:   4    -0.144144702388E+03    0.11384E-03   -0.28536E-04  3118   0.799E-02    0.506E-02
DAV:   5    -0.144144584884E+03    0.11750E-03   -0.20498E-04  3166   0.102E-01    0.168E-02
DAV:   6    -0.144144577856E+03    0.70280E-05   -0.13806E-04  3078   0.651E-02    0.134E-02
DAV:   7    -0.144144569314E+03    0.85418E-05   -0.27710E-05  2348   0.296E-02
  24 F= -.14414457E+03 E0= -.14414094E+03  d E =-.369256E-02
       N       E                     dE             d eps       ncg     rms          rms(c)
DAV:   1    -0.144144672509E+03   -0.94653E-04   -0.59663E-01  2876   0.331E+00    0.100E-01
DAV:   2    -0.144145867632E+03   -0.11951E-02   -0.13327E-02  3040   0.454E-01    0.582E-02
DAV:   3    -0.144145749088E+03    0.11854E-03   -0.14341E-04  3204   0.705E-02    0.387E-02
DAV:   4    -0.144145700429E+03    0.48659E-04   -0.82160E-05  3100   0.520E-02    0.250E-02
DAV:   5    -0.144145632913E+03    0.67516E-04   -0.51760E-05  2962   0.736E-02    0.922E-03
DAV:   6    -0.144145594766E+03    0.38147E-04   -0.53540E-05  2894   0.673E-02    0.560E-03
DAV:   7    -0.144145576926E+03    0.17839E-04   -0.34604E-05  2592   0.452E-02    0.548E-03
DAV:   8    -0.144145527270E+03    0.49656E-04   -0.12773E-05  2242   0.898E-02    0.664E-03
DAV:   9    -0.144145484401E+03    0.42869E-04   -0.41584E-05  3018   0.102E-01    0.882E-03
DAV:  10    -0.144145470179E+03    0.14222E-04   -0.46278E-05  2706   0.598E-02    0.582E-03
DAV:  11    -0.144145436826E+03    0.33353E-04   -0.35145E-05  2676   0.159E-01    0.600E-03
DAV:  12    -0.144145433578E+03    0.32488E-05   -0.90987E-05  3192   0.104E-01
  25 F= -.14414543E+03 E0= -.14414181E+03  d E =-.864264E-03
       N       E                     dE             d eps       ncg     rms          rms(c)
DAV:   1    -0.144144753162E+03    0.68366E-03   -0.55804E-01  2872   0.320E+00    0.952E-02
DAV:   2    -0.144145891732E+03   -0.11386E-02   -0.12631E-02  3048   0.442E-01    0.577E-02
DAV:   3    -0.144145796173E+03    0.95559E-04   -0.15430E-04  3240   0.654E-02    0.392E-02
DAV:   4    -0.144145759920E+03    0.36252E-04   -0.78007E-05  3092   0.468E-02    0.245E-02
DAV:   5    -0.144145722314E+03    0.37606E-04   -0.54947E-05  2930   0.549E-02    0.771E-03
DAV:   6    -0.144145718757E+03    0.35571E-05   -0.44294E-05  2840   0.309E-02
  26 F= -.14414572E+03 E0= -.14414209E+03  d E =-.114944E-02
       N       E                     dE             d eps       ncg     rms          rms(c)
DAV:   1    -0.144146298416E+03   -0.57610E-03   -0.21571E-01  2816   0.199E+00    0.635E-02
DAV:   2    -0.144146744166E+03   -0.44575E-03   -0.49486E-03  3064   0.280E-01    0.365E-02
DAV:   3    -0.144146715533E+03    0.28633E-04   -0.76123E-05  3186   0.434E-02    0.263E-02
DAV:   4    -0.144146705705E+03    0.98278E-05   -0.39152E-05  2910   0.290E-02    0.151E-02
DAV:   5    -0.144146697859E+03    0.78462E-05   -0.24732E-05  2406   0.285E-02    0.691E-03
DAV:   6    -0.144146697641E+03    0.21804E-06   -0.94524E-06  1574   0.164E-02
  27 F= -.14414670E+03 E0= -.14414304E+03  d E =-.978884E-03
       N       E                     dE             d eps       ncg     rms          rms(c)
DAV:   1    -0.144145376532E+03    0.13213E-02   -0.11085E+00  2812   0.452E+00    0.144E-01
DAV:   2    -0.144147640876E+03   -0.22643E-02   -0.25672E-02  3072   0.644E-01    0.828E-02
DAV:   3    -0.144147492199E+03    0.14868E-03   -0.50056E-04  3216   0.109E-01    0.609E-02
DAV:   4    -0.144147419621E+03    0.72578E-04   -0.21385E-04  3100   0.689E-02    0.336E-02
DAV:   5    -0.144147335801E+03    0.83821E-04   -0.12612E-04  3170   0.826E-02    0.208E-02
DAV:   6    -0.144147317395E+03    0.18406E-04   -0.69917E-05  2914   0.549E-02    0.198E-02
DAV:   7    -0.144147272228E+03    0.45167E-04   -0.63294E-05  3224   0.897E-02    0.812E-03
DAV:   8    -0.144147259506E+03    0.12722E-04   -0.52791E-05  2752   0.397E-02    0.991E-03
DAV:   9    -0.144147236473E+03    0.23034E-04   -0.55795E-05  2798   0.467E-02    0.186E-02
DAV:  10    -0.144147154155E+03    0.82317E-04   -0.57526E-05  3186   0.180E-01    0.253E-02
DAV:  11    -0.144147104473E+03    0.49682E-04   -0.11636E-04  3558   0.150E-01    0.156E-02
DAV:  12    -0.144147085825E+03    0.18648E-04   -0.16407E-04  3610   0.156E-01    0.791E-03
DAV:  13    -0.144147094827E+03   -0.90021E-05   -0.14484E-04  2844   0.482E-02    0.845E-03
DAV:  14    -0.144147094738E+03    0.88766E-07   -0.87507E-06  1832   0.131E-02
  28 F= -.14414709E+03 E0= -.14414334E+03  d E =-.137598E-02
       N       E                     dE             d eps       ncg     rms          rms(c)
DAV:   1    -0.144147064096E+03    0.30731E-04   -0.12211E-01  2808   0.150E+00    0.474E-02
DAV:   2    -0.144147302363E+03   -0.23827E-03   -0.27712E-03  3106   0.214E-01    0.274E-02
DAV:   3    -0.144147287962E+03    0.14401E-04   -0.73086E-05  3128   0.400E-02    0.209E-02
DAV:   4    -0.144147280456E+03    0.75067E-05   -0.18675E-05  1906   0.206E-02    0.127E-02
DAV:   5    -0.144147271965E+03    0.84910E-05   -0.19592E-05  1982   0.273E-02    0.731E-03
DAV:   6    -0.144147270030E+03    0.19345E-05   -0.90994E-06  1714   0.200E-02
  29 F= -.14414727E+03 E0= -.14414356E+03  d E =-.155127E-02
       N       E                     dE             d eps       ncg     rms          rms(c)
DAV:   1    -0.144147343488E+03   -0.71524E-04   -0.39561E-01  2804   0.261E+00    0.742E-02
DAV:   2    -0.144148079071E+03   -0.73558E-03   -0.80875E-03  3126   0.351E-01    0.431E-02
DAV:   3    -0.144148028633E+03    0.50438E-04   -0.95441E-05  3204   0.518E-02    0.301E-02
DAV:   4    -0.144147979555E+03    0.49078E-04   -0.86806E-05  3092   0.728E-02    0.113E-02
DAV:   5    -0.144147975057E+03    0.44979E-05   -0.84004E-05  3066   0.505E-02    0.122E-02
DAV:   6    -0.144147974552E+03    0.50544E-06   -0.20464E-05  1946   0.181E-02
  30 F= -.14414797E+03 E0= -.14414425E+03  d E =-.704522E-03
       N       E                     dE             d eps       ncg     rms          rms(c)
DAV:   1    -0.144147330589E+03    0.64447E-03   -0.56315E-01  2804   0.312E+00    0.952E-02
DAV:   2    -0.144148389082E+03   -0.10585E-02   -0.11834E-02  3128   0.425E-01    0.521E-02
DAV:   3    -0.144148311344E+03    0.77738E-04   -0.15097E-04  3242   0.699E-02    0.368E-02
DAV:   4    -0.144148242787E+03    0.68557E-04   -0.14299E-04  3244   0.923E-02    0.152E-02
DAV:   5    -0.144148231954E+03    0.10833E-04   -0.12840E-04  3188   0.661E-02    0.166E-02
DAV:   6    -0.144148231164E+03    0.78966E-06   -0.36991E-05  2422   0.241E-02
  31 F= -.14414823E+03 E0= -.14414447E+03  d E =-.961134E-03
       N       E                     dE             d eps       ncg     rms          rms(c)
DAV:   1    -0.144148114500E+03    0.11745E-03   -0.54117E-01  2820   0.311E+00    0.972E-02
DAV:   2    -0.144149227719E+03   -0.11132E-02   -0.12000E-02  3058   0.427E-01    0.510E-02
DAV:   3    -0.144149162135E+03    0.65584E-04   -0.11289E-04  3214   0.570E-02    0.358E-02
DAV:   4    -0.144149124136E+03    0.37999E-04   -0.86115E-05  3096   0.671E-02    0.183E-02
DAV:   5    -0.144149098688E+03    0.25448E-04   -0.96222E-05  3272   0.739E-02    0.132E-02
DAV:   6    -0.144149098079E+03    0.60969E-06   -0.50581E-05  2598   0.301E-02
  32 F= -.14414910E+03 E0= -.14414536E+03  d E =-.866914E-03
       N       E                     dE             d eps       ncg     rms          rms(c)
DAV:   1    -0.144144693507E+03    0.44052E-02   -0.27940E+00  2820   0.706E+00    0.212E-01
DAV:   2    -0.144150443448E+03   -0.57499E-02   -0.61763E-02  3078   0.971E-01    0.118E-01
DAV:   3    -0.144150124899E+03    0.31855E-03   -0.67174E-04  3228   0.125E-01    0.840E-02
DAV:   4    -0.144149939385E+03    0.18551E-03   -0.43636E-04  3136   0.134E-01    0.421E-02
DAV:   5    -0.144149827936E+03    0.11145E-03   -0.43802E-04  3230   0.141E-01    0.307E-02
DAV:   6    -0.144149822022E+03    0.59134E-05   -0.19635E-04  3012   0.600E-02    0.302E-02
DAV:   7    -0.144149808866E+03    0.13156E-04   -0.14941E-05  1680   0.154E-02    0.226E-02
DAV:   8    -0.144149744966E+03    0.63899E-04   -0.15964E-04  3046   0.690E-02    0.185E-02
DAV:   9    -0.144149720158E+03    0.24809E-04   -0.22258E-05  2348   0.466E-02    0.209E-02
DAV:  10    -0.144149667400E+03    0.52758E-04   -0.20689E-04  4272   0.148E-01    0.216E-02
DAV:  11    -0.144149615547E+03    0.51853E-04   -0.57570E-05  3394   0.123E-01    0.214E-02
DAV:  12    -0.144149581728E+03    0.33819E-04   -0.82269E-05  3236   0.980E-02    0.200E-02
DAV:  13    -0.144149547447E+03    0.34281E-04   -0.27830E-05  2570   0.873E-02    0.126E-02
DAV:  14    -0.144149524098E+03    0.23350E-04   -0.96988E-05  3598   0.161E-01    0.116E-02
DAV:  15    -0.144149532505E+03   -0.84072E-05   -0.11770E-04  2746   0.430E-02    0.711E-03
DAV:  16    -0.144149531073E+03    0.14323E-05   -0.13780E-05  1784   0.240E-02
  33 F= -.14414953E+03 E0= -.14414583E+03  d E =-.129991E-02
       N       E                     dE             d eps       ncg     rms          rms(c)
DAV:   1    -0.144149229679E+03    0.30283E-03   -0.19688E-01  2824   0.187E+00    0.581E-02
DAV:   2    -0.144149631962E+03   -0.40228E-03   -0.43716E-03  3070   0.257E-01    0.311E-02
DAV:   3    -0.144149609963E+03    0.21999E-04   -0.54617E-05  3146   0.330E-02    0.222E-02
DAV:   4    -0.144149598254E+03    0.11710E-04   -0.23840E-05  2120   0.298E-02    0.120E-02
DAV:   5    -0.144149592162E+03    0.60917E-05   -0.36062E-05  2872   0.360E-02    0.837E-03
DAV:   6    -0.144149591814E+03    0.34762E-06   -0.11345E-05  1572   0.153E-02
  34 F= -.14414959E+03 E0= -.14414588E+03  d E =-.136065E-02
       N       E                     dE             d eps       ncg     rms          rms(c)
DAV:   1    -0.144149900134E+03   -0.30797E-03   -0.23064E-01  2776   0.205E+00    0.615E-02
DAV:   2    -0.144150360856E+03   -0.46072E-03   -0.52553E-03  3106   0.291E-01    0.358E-02
DAV:   3    -0.144150329135E+03    0.31722E-04   -0.12930E-04  3142   0.523E-02    0.277E-02
DAV:   4    -0.144150312837E+03    0.16298E-04   -0.18790E-05  1998   0.211E-02    0.189E-02
DAV:   5    -0.144150279141E+03    0.33695E-04   -0.68064E-05  2986   0.585E-02    0.128E-02
DAV:   6    -0.144150273932E+03    0.52094E-05   -0.22456E-05  2082   0.268E-02
  35 F= -.14415027E+03 E0= -.14414660E+03  d E =-.682117E-03
       N       E                     dE             d eps       ncg     rms          rms(c)
DAV:   1    -0.144150015035E+03    0.26411E-03   -0.29908E-01  2772   0.234E+00    0.779E-02
DAV:   2    -0.144150614514E+03   -0.59948E-03   -0.72075E-03  3112   0.349E-01    0.415E-02
DAV:   3    -0.144150569171E+03    0.45343E-04   -0.23169E-04  3134   0.720E-02    0.338E-02
DAV:   4    -0.144150541870E+03    0.27301E-04   -0.28922E-05  2538   0.258E-02    0.234E-02
DAV:   5    -0.144150470488E+03    0.71382E-04   -0.11615E-04  3050   0.828E-02    0.172E-02
DAV:   6    -0.144150453426E+03    0.17062E-04   -0.32305E-05  2474   0.414E-02    0.180E-02
DAV:   7    -0.144150425399E+03    0.28027E-04   -0.57145E-05  2766   0.701E-02    0.633E-03
DAV:   8    -0.144150386409E+03    0.38990E-04   -0.16288E-05  2178   0.969E-02    0.920E-03
DAV:   9    -0.144150361386E+03    0.25023E-04   -0.63091E-05  3008   0.793E-02    0.132E-02
DAV:  10    -0.144150313707E+03    0.47679E-04   -0.11221E-04  3194   0.121E-01    0.200E-02
DAV:  11    -0.144150279220E+03    0.34487E-04   -0.59013E-05  3230   0.139E-01    0.135E-02
DAV:  12    -0.144150277038E+03    0.21815E-05   -0.12544E-04  2732   0.763E-02    0.482E-03
DAV:  13    -0.144150281382E+03   -0.43432E-05   -0.50068E-05  2552   0.272E-02
  36 F= -.14415028E+03 E0= -.14414665E+03  d E =-.689567E-03
       N       E                     dE             d eps       ncg     rms          rms(c)
DAV:   1    -0.144150288233E+03   -0.11195E-04   -0.21716E-02  2800   0.632E-01    0.181E-02
DAV:   2    -0.144150331454E+03   -0.43220E-04   -0.49407E-04  3090   0.885E-02    0.150E-02
DAV:   3    -0.144150326541E+03    0.49123E-05   -0.62775E-06  1762   0.127E-02    0.106E-02
DAV:   4    -0.144150323516E+03    0.30251E-05   -0.10258E-05  1782   0.158E-02    0.484E-03
DAV:   5    -0.144150321641E+03    0.18750E-05   -0.42548E-06  1620   0.122E-02    0.362E-03
DAV:   6    -0.144150320912E+03    0.72987E-06   -0.33884E-06  1732   0.157E-02
  37 F= -.14415032E+03 E0= -.14414668E+03  d E =-.729097E-03
       N       E                     dE             d eps       ncg     rms          rms(c)
DAV:   1    -0.144150308363E+03    0.13279E-04   -0.10951E-02  2788   0.448E-01    0.139E-02
DAV:   2    -0.144150330902E+03   -0.22540E-04   -0.25793E-04  3116   0.651E-02    0.842E-03
DAV:   3    -0.144150329025E+03    0.18780E-05   -0.46069E-06  1686   0.108E-02    0.628E-03
DAV:   4    -0.144150327975E+03    0.10493E-05   -0.14908E-06  1536   0.618E-03    0.398E-03
DAV:   5    -0.144150326196E+03    0.17791E-05   -0.40211E-06  1744   0.148E-02    0.309E-03
DAV:   6    -0.144150326140E+03    0.55644E-07   -0.17388E-06  1464   0.561E-03
  38 F= -.14415033E+03 E0= -.14414667E+03  d E =-.734326E-03
       N       E                     dE             d eps       ncg     rms          rms(c)
DAV:   1    -0.144150458447E+03   -0.13225E-03   -0.45638E-02  2860   0.891E-01    0.269E-02
DAV:   2    -0.144150534881E+03   -0.76434E-04   -0.98545E-04  3154   0.128E-01    0.179E-02
DAV:   3    -0.144150525017E+03    0.98632E-05   -0.22699E-05  2356   0.244E-02    0.133E-02
DAV:   4    -0.144150520413E+03    0.46044E-05   -0.72584E-06  1714   0.146E-02    0.858E-03
DAV:   5    -0.144150515034E+03    0.53789E-05   -0.11181E-05  1880   0.200E-02    0.385E-03
DAV:   6    -0.144150514667E+03    0.36754E-06   -0.62783E-06  1622   0.126E-02
  39 F= -.14415051E+03 E0= -.14414688E+03  d E =-.188526E-03
