 vasp.5.3.5 31Mar14 (build Apr 08 2024 10:12:10) complex                        
  
 executed on             LinuxIFC date 2024.07.30  01:16:11
 running on    8 total cores
 distrk:  each k-point on    8 cores,    1 groups
 distr:  one band on NCORES_PER_BAND=   4 cores,    2 groups


--------------------------------------------------------------------------------------------------------


 INCAR:
 POTCAR:    PAW_PBE O 08Apr2002                   
 POTCAR:    PAW_PBE Mg 13Apr2007                  
 POTCAR:    PAW_PBE Al 04Jan2001                  
 POTCAR:    PAW_PBE O 08Apr2002                   
   VRHFIN =O: s2p4                                                              
   LEXCH  = PE                                                                  
   EATOM  =   432.3788 eV,   31.7789 Ry                                         
                                                                                
   TITEL  = PAW_PBE O 08Apr2002                                                 
   LULTRA =        F    use ultrasoft PP ?                                      
   IUNSCR =        1    unscreen: 0-lin 1-nonlin 2-no                           
   RPACOR =    1.200    partial core radius                                     
   POMASS =   16.000; ZVAL   =    6.000    mass and valenz                      
   RCORE  =    1.520    outmost cutoff radius                                   
   RWIGS  =    1.550; RWIGS  =    0.820    wigner-seitz radius (au A)           
   ENMAX  =  400.000; ENMIN  =  300.000 eV                                      
   ICORE  =        2    local potential                                         
   LCOR   =        T    correct aug charges                                     
   LPAW   =        T    paw PP                                                  
   EAUG   =  605.392                                                            
   DEXC   =    0.000                                                            
   RMAX   =    1.553    core radius for proj-oper                               
   RAUG   =    1.300    factor for augmentation sphere                          
   RDEP   =    1.550    radius for radial grids                                 
   RDEPT  =    1.329    core radius for aug-charge                              
                                                                                
   Atomic configuration                                                         
    4 entries                                                                   
     n  l   j            E        occ.                                          
     1  0  0.50      -514.6923   2.0000                                         
     2  0  0.50       -23.9615   2.0000                                         
     2  1  0.50        -9.0305   4.0000                                         
     3  2  1.50        -9.5241   0.0000                                         
   Description                                                                  
     l       E           TYP  RCUT    TYP  RCUT                                 
     0    -23.9615318     23  1.200                                             
     0     -9.5240782     23  1.200                                             
     1     -9.0304911     23  1.520                                             
     1      8.1634956     23  1.520                                             
     2     -9.5240782      7  1.500                                             
  local pseudopotential read in
  partial core-charges read in
  partial kinetic energy density read in
  kinetic energy density of atom read in
  atomic valenz-charges read in
  non local Contribution for L=           0  read in
    real space projection operators read in
  non local Contribution for L=           0  read in
    real space projection operators read in
  non local Contribution for L=           1  read in
    real space projection operators read in
  non local Contribution for L=           1  read in
    real space projection operators read in
    PAW grid and wavefunctions read in
 
   number of l-projection  operators is LMAX  =           4
   number of lm-projection operators is LMMAX =           8
 
 POTCAR:    PAW_PBE Mg 13Apr2007                  
   VRHFIN =Mg: s2p0                                                             
   LEXCH  = PE                                                                  
   EATOM  =    23.0369 eV,    1.6932 Ry                                         
                                                                                
   TITEL  = PAW_PBE Mg 13Apr2007                                                
   LULTRA =        F    use ultrasoft PP ?                                      
   IUNSCR =        1    unscreen: 0-lin 1-nonlin 2-no                           
   RPACOR =    1.500    partial core radius                                     
   POMASS =   24.305; ZVAL   =    2.000    mass and valenz                      
   RCORE  =    2.000    outmost cutoff radius                                   
   RWIGS  =    2.880; RWIGS  =    1.524    wigner-seitz radius (au A)           
   ENMAX  =  200.000; ENMIN  =  100.000 eV                                      
   RCLOC  =    1.506    cutoff for local pot                                    
   LCOR   =        T    correct aug charges                                     
   LPAW   =        T    paw PP                                                  
   EAUG   =  454.734                                                            
   DEXC   =    0.000                                                            
   RMAX   =    2.045    core radius for proj-oper                               
   RAUG   =    1.300    factor for augmentation sphere                          
   RDEP   =    2.025    radius for radial grids                                 
   RDEPT  =    1.942    core radius for aug-charge                              
                                                                                
   Atomic configuration                                                         
    6 entries                                                                   
     n  l   j            E        occ.                                          
     1  0  0.50     -1259.6230   2.0000                                         
     2  0  0.50       -79.8442   2.0000                                         
     2  1  1.50       -46.6121   6.0000                                         
     3  0  0.50        -4.7055   2.0000                                         
     3  1  0.50        -1.3660   0.0000                                         
     3  2  1.50        -1.3606   0.0000                                         
   Description                                                                  
     l       E           TYP  RCUT    TYP  RCUT                                 
     0     -4.7054661     23  2.000                                             
     0     27.2116520     23  2.000                                             
     1      1.3605826     23  2.000                                             
     1     27.2116520     23  2.000                                             
     2     -1.3605826     23  2.000                                             
  local pseudopotential read in
  partial core-charges read in
  partial kinetic energy density read in
  atomic valenz-charges read in
  non local Contribution for L=           0  read in
    real space projection operators read in
  non local Contribution for L=           0  read in
    real space projection operators read in
  non local Contribution for L=           1  read in
    real space projection operators read in
  non local Contribution for L=           1  read in
    real space projection operators read in
  non local Contribution for L=           2  read in
    real space projection operators read in
    PAW grid and wavefunctions read in
 
   number of l-projection  operators is LMAX  =           5
   number of lm-projection operators is LMMAX =          13
 
 POTCAR:    PAW_PBE Al 04Jan2001                  
   VRHFIN =Al: s2p1                                                             
   LEXCH  = PE                                                                  
   EATOM  =    53.5387 eV,    3.9350 Ry                                         
                                                                                
   TITEL  = PAW_PBE Al 04Jan2001                                                
   LULTRA =        F    use ultrasoft PP ?                                      
   IUNSCR =        1    unscreen: 0-lin 1-nonlin 2-no                           
   RPACOR =    1.500    partial core radius                                     
   POMASS =   26.981; ZVAL   =    3.000    mass and valenz                      
   RCORE  =    1.900    outmost cutoff radius                                   
   RWIGS  =    2.650; RWIGS  =    1.402    wigner-seitz radius (au A)           
   ENMAX  =  240.300; ENMIN  =  180.225 eV                                      
   ICORE  =        2    local potential                                         
   LCOR   =        T    correct aug charges                                     
   LPAW   =        T    paw PP                                                  
   EAUG   =  291.052                                                            
   DEXC   =    0.000                                                            
   RMAX   =    1.939    core radius for proj-oper                               
   RAUG   =    1.300    factor for augmentation sphere                          
   RDEP   =    1.966    radius for radial grids                                 
   RDEPT  =    1.856    core radius for aug-charge                              
                                                                                
   Atomic configuration                                                         
    6 entries                                                                   
     n  l   j            E        occ.                                          
     1  0  0.50     -1511.1048   2.0000                                         
     2  0  0.50      -108.1629   2.0000                                         
     2  1  1.50       -69.6402   6.0000                                         
     3  0  0.50        -7.7528   2.0000                                         
     3  1  1.50        -2.7121   1.0000                                         
     3  2  2.50        -2.7212   0.0000                                         
   Description                                                                  
     l       E           TYP  RCUT    TYP  RCUT                                 
     0     -7.7528455     23  1.900                                             
     0     -3.3096929     23  1.900                                             
     1     -2.7120682     23  1.900                                             
     1     13.6058260     23  1.900                                             
     2     -2.7211652      7  1.900                                             
  local pseudopotential read in
  partial core-charges read in
  partial kinetic energy density read in
  atomic valenz-charges read in
  non local Contribution for L=           0  read in
    real space projection operators read in
  non local Contribution for L=           0  read in
    real space projection operators read in
  non local Contribution for L=           1  read in
    real space projection operators read in
  non local Contribution for L=           1  read in
    real space projection operators read in
    PAW grid and wavefunctions read in
 
   number of l-projection  operators is LMAX  =           4
   number of lm-projection operators is LMMAX =           8
 

 ----------------------------------------------------------------------------- 
|                                                                             |
|  ADVICE TO THIS USER RUNNING 'VASP/VAMP'   (HEAR YOUR MASTER'S VOICE ...):  |
|                                                                             |
|      You have a (more or less) 'large supercell' and for larger cells       |
|      it might be more efficient to use real space projection opertators     |
|      So try LREAL= Auto  in the INCAR   file.                               |
|      Mind: At the moment your POTCAR file does not contain real space       |
|       projectors, and has to be modified,  BUT if you                       |
|      want to do an extremely  accurate calculation you might also keep the  |
|      reciprocal projection scheme          (i.e. LREAL=.FALSE.)             |
|                                                                             |
 ----------------------------------------------------------------------------- 

  PAW_PBE O 08Apr2002                   :
 energy of atom  1       EATOM= -432.3788
 kinetic energy error for atom=    0.0208 (will be added to EATOM!!)
  PAW_PBE Mg 13Apr2007                  :
 energy of atom  2       EATOM=  -23.0369
 kinetic energy error for atom=    0.0000 (will be added to EATOM!!)
  PAW_PBE Al 04Jan2001                  :
 energy of atom  3       EATOM=  -53.5387
 kinetic energy error for atom=    0.0002 (will be added to EATOM!!)
 
 
 POSCAR: Layer                                   
  positions in direct lattice
  velocities in cartesian coordinates
 exchange correlation table for  LEXCH =        8
   RHO(1)=    0.500       N(1)  =     2000
   RHO(2)=  100.500       N(2)  =     4000
 


--------------------------------------------------------------------------------------------------------


 ion  position               nearest neighbor table
   1  0.000  0.000  0.297-  14 2.12  14 2.12  14 2.12  18 2.16  18 2.16  18 2.16
   2  0.333  0.667  0.348-  11 2.13  11 2.13  11 2.13  14 2.13  14 2.13  14 2.13
   3  0.000  0.000  0.449-  15 2.13  15 2.13  15 2.13  19 2.13  19 2.13  19 2.13
   4  0.333  0.667  0.499-  15 2.13  15 2.13  15 2.13  12 2.13  12 2.13  12 2.13
   5  0.000  0.000  0.600-  20 2.13  20 2.13  20 2.13  16 2.13  16 2.13  16 2.13
   6  0.333  0.667  0.650-  16 2.13  16 2.13  16 2.13  13 2.13  13 2.13  13 2.13
   7  0.000  0.000  0.751-  21 2.12  21 2.12  21 2.12  17 2.16  17 2.16  17 2.16
   8  0.667  0.333  0.398-  19 2.13  19 2.13  19 2.13  11 2.13  11 2.13  11 2.13
   9  0.667  0.333  0.550-  20 2.13  20 2.13  20 2.13  12 2.13  12 2.13  12 2.13
  10  0.667  0.333  0.701-  21 2.13  21 2.13  21 2.13  13 2.13  13 2.13  13 2.13
  11  0.000  0.000  0.373-   8 2.13   8 2.13   8 2.13   2 2.13   2 2.13   2 2.13  19 3.03  19 3.03
                            19 3.03  14 3.03  14 3.03  14 3.03
  12  0.000  0.000  0.524-   9 2.13   9 2.13   9 2.13   4 2.13   4 2.13   4 2.13  15 3.03  15 3.03
                            15 3.03  20 3.03  20 3.03  20 3.03
  13  0.000  0.000  0.676-   6 2.13   6 2.13   6 2.13  10 2.13  10 2.13  10 2.13  16 3.03  16 3.03
                            16 3.03  21 3.03  21 3.03  21 3.03
  14  0.667  0.333  0.322-   1 2.12   1 2.12   1 2.12   2 2.13   2 2.13   2 2.13  11 3.03  11 3.03
                            11 3.03  18 3.06  18 3.06  18 3.06
  15  0.667  0.333  0.474-   3 2.13   3 2.13   3 2.13   4 2.13   4 2.13   4 2.13  12 3.03  12 3.03
                            12 3.03  19 3.03  19 3.03  19 3.03
  16  0.667  0.333  0.625-   6 2.13   6 2.13   6 2.13   5 2.13   5 2.13   5 2.13  13 3.03  13 3.03
                            13 3.03  20 3.03  20 3.03  20 3.03
  17  0.667  0.333  0.777-   7 2.16   7 2.16   7 2.16  26 2.98  26 2.98  26 2.98  21 3.06  21 3.06
                            21 3.06
  18  0.333  0.667  0.271-   1 2.16   1 2.16   1 2.16  23 2.98  23 2.98  23 2.98  14 3.06  14 3.06
                            14 3.06
  19  0.333  0.667  0.423-   8 2.13   8 2.13   8 2.13   3 2.13   3 2.13   3 2.13  11 3.03  11 3.03
                            11 3.03  15 3.03  15 3.03  15 3.03
  20  0.333  0.667  0.575-   5 2.13   5 2.13   5 2.13   9 2.13   9 2.13   9 2.13  12 3.03  12 3.03
                            12 3.03  16 3.03  16 3.03  16 3.03
  21  0.333  0.667  0.726-   7 2.12   7 2.12   7 2.12  10 2.13  10 2.13  10 2.13  13 3.03  13 3.03
                            13 3.03  17 3.06  17 3.06  17 3.06
  22  0.000  0.000  0.024-  25 2.87  25 2.87  25 2.87  27 2.87  27 2.87  27 2.87
  23  0.000  0.000  0.222-  24 2.84  24 2.84  24 2.84  18 2.98  18 2.98  18 2.98
  24  0.667  0.333  0.176-  23 2.84  23 2.84  23 2.84
  25  0.333  0.667  0.071-  22 2.87  22 2.87  22 2.87
  26  0.000  0.000  0.827-  28 2.84  28 2.84  28 2.84  17 2.98  17 2.98  17 2.98
  27  0.667  0.333  0.978-  22 2.87  22 2.87  22 2.87
  28  0.333  0.667  0.872-  26 2.84  26 2.84  26 2.84
 
  LATTYP: Found a hexagonal cell.
 ALAT       =     2.9932160299
 C/A-ratio  =    16.4606895687
  
  Lattice vectors:
  
 A1 = (   2.5922013181,  -1.4966076735,   0.0000000000)
 A2 = (   0.0000000000,   2.9932153469,   0.0000000000)
 A3 = (  -0.0000000000,   0.0000000000,  49.2703998811)


Analysis of symmetry for initial positions (statically):
=====================================================================
 Subroutine PRICEL returns:
 Original cell was already a primitive cell.
 

 Routine SETGRP: Setting up the symmetry group for a 
 hexagonal supercell.


 Subroutine GETGRP returns: Found 12 space group operations
 (whereof  6 operations were pure point group operations)
 out of a pool of 24 trial point group operations.


The static configuration has the point symmetry C_3v.
 The point group associated with its full space group is D_3d.


Analysis of symmetry for dynamics (positions and initial velocities):
=====================================================================
 Subroutine PRICEL returns:
 Original cell was already a primitive cell.
 

 Routine SETGRP: Setting up the symmetry group for a 
 hexagonal supercell.


 Subroutine GETGRP returns: Found 12 space group operations
 (whereof  6 operations were pure point group operations)
 out of a pool of 24 trial point group operations.


The dynamic configuration has the point symmetry C_3v.
 The point group associated with its full space group is D_3d.


Analysis of constrained symmetry for selective dynamics:
=====================================================================
 Subroutine PRICEL returns:
 Original cell was already a primitive cell.
 

 Routine SETGRP: Setting up the symmetry group for a 
 hexagonal supercell.


 Subroutine GETGRP returns: Found 12 space group operations
 (whereof  6 operations were pure point group operations)
 out of a pool of 24 trial point group operations.


The constrained configuration has the point symmetry C_3v.
 The point group associated with its full space group is D_3d.
 
 
 KPOINTS: K-Spacing Value to Generate K-Mesh: 0.02

Automatic generation of k-mesh.
Space group operators:
 irot       det(A)        alpha          n_x          n_y          n_z        tau_x        tau_y        tau_z
    1     1.000000     0.000000     1.000000     0.000000     0.000000     0.000000     0.000000     0.000000
    2     1.000000   120.000000     0.000000     0.000000    -1.000000     0.000000     0.000000     0.000000
    3     1.000000   120.000000    -0.000000     0.000000     1.000000     0.000000     0.000000     0.000000
    4    -1.000000   180.000000    -0.866025     0.500000    -0.000000     0.000000     0.000000     0.000000
    5    -1.000000   180.000000     0.000000     1.000000     0.000000     0.000000     0.000000     0.000000
    6    -1.000000   180.000000    -0.866025    -0.500000    -0.000000     0.000000     0.000000     0.000000
    7    -1.000000     0.000000     1.000000     0.000000     0.000000     0.000000     0.000000     0.048638
    8    -1.000000   120.000000     0.000000     0.000000    -1.000000     0.000000     0.000000     0.048638
    9    -1.000000   120.000000    -0.000000     0.000000     1.000000     0.000001     0.000000     0.048638
   10     1.000000   180.000000    -0.866025     0.500000    -0.000000     0.000001     0.000000     0.048638
   11     1.000000   180.000000     0.000000     1.000000     0.000000     0.000000     0.000000     0.048638
   12     1.000000   180.000000    -0.866025    -0.500000    -0.000000     0.000000     0.000000     0.048638
 
 Subroutine IBZKPT returns following result:
 ===========================================
 
 Found     21 irreducible k-points:
 
 Following reciprocal coordinates:
            Coordinates               Weight
  0.000000  0.000000  0.000000      1.000000
  0.076923  0.000000 -0.000000      6.000000
  0.153846  0.000000  0.000000      6.000000
  0.230769  0.000000  0.000000      6.000000
  0.307692  0.000000  0.000000      6.000000
  0.384615  0.000000  0.000000      6.000000
  0.461538  0.000000  0.000000      6.000000
  0.076923  0.076923  0.000000      6.000000
  0.153846  0.076923  0.000000     12.000000
  0.230769  0.076923  0.000000     12.000000
  0.307692  0.076923  0.000000     12.000000
  0.384615  0.076923 -0.000000     12.000000
  0.461538  0.076923  0.000000      6.000000
  0.153846  0.153846  0.000000      6.000000
  0.230769  0.153846 -0.000000     12.000000
  0.307692  0.153846  0.000000     12.000000
  0.384615  0.153846  0.000000     12.000000
  0.230769  0.230769  0.000000      6.000000
  0.307692  0.230769 -0.000000     12.000000
  0.384615  0.230769  0.000000      6.000000
  0.307692  0.307692  0.000000      6.000000
 
 Following cartesian coordinates:
            Coordinates               Weight
  0.000000  0.000000  0.000000      1.000000
  0.029675  0.000000  0.000000      6.000000
  0.059350  0.000000  0.000000      6.000000
  0.089024  0.000000  0.000000      6.000000
  0.118699  0.000000  0.000000      6.000000
  0.148374  0.000000  0.000000      6.000000
  0.178049  0.000000  0.000000      6.000000
  0.044512  0.025699  0.000000      6.000000
  0.074187  0.025699  0.000000     12.000000
  0.103862  0.025699  0.000000     12.000000
  0.133537  0.025699  0.000000     12.000000
  0.163211  0.025699  0.000000     12.000000
  0.192886  0.025699  0.000000      6.000000
  0.089024  0.051398  0.000000      6.000000
  0.118699  0.051398  0.000000     12.000000
  0.148374  0.051398  0.000000     12.000000
  0.178049  0.051398  0.000000     12.000000
  0.133537  0.077097  0.000000      6.000000
  0.163211  0.077097  0.000000     12.000000
  0.192886  0.077097  0.000000      6.000000
  0.178049  0.102797  0.000000      6.000000
 


--------------------------------------------------------------------------------------------------------




 Dimension of arrays:
   k-points           NKPTS =     21   k-points in BZ     NKDIM =     21   number of bands    NBANDS=     66
   number of dos      NEDOS =    301   number of ions     NIONS =     28
   non local maximal  LDIM  =      5   non local SUM 2l+1 LMDIM =     13
   total plane-waves  NPLWV = 217728
   max r-space proj   IRMAX =      1   max aug-charges    IRDMAX= 193727
   dimension x,y,z NGX =    24 NGY =   24 NGZ =  378
   dimension x,y,z NGXF=    48 NGYF=   48 NGZF=  756
   support grid    NGXF=    96 NGYF=   96 NGZF= 1512
   ions per type =              10  11   7
 NGX,Y,Z   is equivalent  to a cutoff of  13.33, 13.33, 12.75 a.u.
 NGXF,Y,Z  is equivalent  to a cutoff of  26.66, 26.66, 25.51 a.u.


 I would recommend the setting:
   dimension x,y,z NGX =    22 NGY =   22 NGZ =  366
 SYSTEM =  unknown system                          
 POSCAR =  Layer                                   

 Startparameter for this run:
   NWRITE =      2    write-flag & timer
   PREC   = accura    normal or accurate (medium, high low for compatibility)
   ISTART =      0    job   : 0-new  1-cont  2-samecut
   ICHARG =      2    charge: 1-file 2-atom 10-const
   ISPIN  =      1    spin polarized calculation?
   LNONCOLLINEAR =      F non collinear calculations
   LSORBIT =      F    spin-orbit coupling
   INIWAV =      1    electr: 0-lowe 1-rand  2-diag
   LASPH  =      F    aspherical Exc in radial PAW
   METAGGA=      F    non-selfconsistent MetaGGA calc.

 Electronic Relaxation 1
   ENCUT  =  520.0 eV  38.22 Ry    6.18 a.u.   5.57  5.57 91.61*2*pi/ulx,y,z
   ENINI  =  520.0     initial cutoff
   ENAUG  =  605.4 eV  augmentation charge cutoff
   NELM   =    100;   NELMIN=  6; NELMDL=  0     # of ELM steps 
   EDIFF  = 0.1E-04   stopping-criterion for ELM
   LREAL  =      F    real-space projection
   NLSPLINE    = F    spline interpolate recip. space projectors
   LCOMPAT=      F    compatible to vasp.4.4
   GGA_COMPAT  = T    GGA compatible to vasp.4.4-vasp.4.6
   LMAXPAW     = -100 max onsite density
   LMAXMIX     =    2 max onsite mixed and CHGCAR
   VOSKOWN=      0    Vosko Wilk Nusair interpolation
   ROPT   =    0.00000   0.00000   0.00000
 Ionic relaxation
   EDIFFG = -.2E-01   stopping-criterion for IOM
   NSW    =    500    number of steps for IOM
   NBLOCK =      1;   KBLOCK =    500    inner block; outer block 
   IBRION =      2    ionic relax: 0-MD 1-quasi-New 2-CG
   NFREE  =      1    steps in history (QN), initial steepest desc. (CG)
   ISIF   =      2    stress and relaxation
   IWAVPR =     11    prediction:  0-non 1-charg 2-wave 3-comb
   ISYM   =      2    0-nonsym 1-usesym 2-fastsym
   LCORR  =      T    Harris-Foulkes like correction to forces

   POTIM  = 0.5000    time-step for ionic-motion
   TEIN   =    0.0    initial temperature
   TEBEG  =    0.0;   TEEND  =   0.0 temperature during run
   SMASS  =  -3.00    Nose mass-parameter (am)
   estimated Nose-frequenzy (Omega)   =  0.10E-29 period in steps =****** mass=  -0.205E-27a.u.
   SCALEE = 1.0000    scale energy and forces
   NPACO  =    256;   APACO  = 16.0  distance and # of slots for P.C.
   PSTRESS=    0.0 pullay stress

  Mass of Ions in am
   POMASS =  16.00 24.30 26.98
  Ionic Valenz
   ZVAL   =   6.00  2.00  3.00
  Atomic Wigner-Seitz radii
   RWIGS  =  -1.00 -1.00 -1.00
  virtual crystal weights 
   VCA    =   1.00  1.00  1.00
   NELECT =     103.0000    total number of electrons
   NUPDOWN=      -1.0000    fix difference up-down

 DOS related values:
   EMIN   =  10.00;   EMAX   =-10.00  energy-range for DOS
   EFERMI =   0.00
   ISMEAR =     0;   SIGMA  =   0.05  broadening in eV -4-tet -1-fermi 0-gaus

 Electronic relaxation 2 (details)
   IALGO  =     38    algorithm
   LDIAG  =      T    sub-space diagonalisation (order eigenvalues)
   LSUBROT=      F    optimize rotation matrix (better conditioning)
   TURBO    =      0    0=normal 1=particle mesh
   IRESTART =      0    0=no restart 2=restart with 2 vectors
   NREBOOT  =      0    no. of reboots
   NMIN     =      0    reboot dimension
   EREF     =   0.00    reference energy to select bands
   IMIX   =      4    mixing-type and parameters
     AMIX     =   0.40;   BMIX     =  1.00
     AMIX_MAG =   1.60;   BMIX_MAG =  1.00
     AMIN     =   0.01
     WC   =   100.;   INIMIX=   1;  MIXPRE=   1;  MAXMIX= -45

 Intra band minimization:
   WEIMIN = 0.0010     energy-eigenvalue tresh-hold
   EBREAK =  0.38E-07  absolut break condition
   DEPER  =   0.30     relativ break condition  

   TIME   =   0.40     timestep for ELM

  volume/ion in A,a.u.               =      13.65        92.14
  Fermi-wavevector in a.u.,A,eV,Ry     =   1.057360  1.998121 15.211459  1.118011
  Thomas-Fermi vector in A             =   2.192630
 
 Write flags
   LWAVE  =      F    write WAVECAR
   LCHARG =      T    write CHGCAR
   LVTOT  =      F    write LOCPOT, total local potential
   LVHAR  =      F    write LOCPOT, Hartree potential only
   LELF   =      F    write electronic localiz. function (ELF)
   LORBIT =      0    0 simple, 1 ext, 2 COOP (PROOUT)


 Dipole corrections
   LMONO  =      F    monopole corrections only (constant potential shift)
   LDIPOL =      F    correct potential (dipole corrections)
   IDIPOL =      0    1-x, 2-y, 3-z, 4-all directions 
   EPSILON=  1.0000000 bulk dielectric constant

 Exchange correlation treatment:
   GGA     =    --    GGA type
   LEXCH   =     8    internal setting for exchange type
   VOSKOWN=      0    Vosko Wilk Nusair interpolation
   LHFCALC =     F    Hartree Fock is set to
   LHFONE  =     F    Hartree Fock one center treatment
   AEXX    =    0.0000 exact exchange contribution

 Linear response parameters
   LEPSILON=     F    determine dielectric tensor
   LRPA    =     F    only Hartree local field effects (RPA)
   LNABLA  =     F    use nabla operator in PAW spheres
   LVEL    =     F    velocity operator in full k-point grid
   LINTERFAST=   F  fast interpolation
   KINTER  =     0    interpolate to denser k-point grid
   CSHIFT  =0.1000    complex shift for real part using Kramers Kronig
   OMEGAMAX=  -1.0    maximum frequency
   DEG_THRESHOLD= 0.2000000E-02 threshold for treating states as degnerate
   RTIME   =    0.100 relaxation time in fs

 Orbital magnetization related:
   ORBITALMAG=     F  switch on orbital magnetization
   LCHIMAG   =     F  perturbation theory with respect to B field
   DQ        =  0.001000  dq finite difference perturbation B field



--------------------------------------------------------------------------------------------------------


 conjugate gradient relaxation of ions
   using selective dynamics as specified on POSCAR
 charge density and potential will be updated during run
 non-spin polarized calculation
 Variant of blocked Davidson
 Davidson routine will perform the subspace rotation
 perform sub-space diagonalisation
    after iterative eigenvector-optimisation
 modified Broyden-mixing scheme, WC =      100.0
 initial mixing is a Kerker type mixing with AMIX =  0.4000 and BMIX =      1.0000
 Hartree-type preconditioning will be used
 using additional bands           14
 reciprocal scheme for non local part
 use partial core corrections
 calculate Harris-corrections to forces 
   (improved forces if not selfconsistent)
 use gradient corrections 
 use of overlap-Matrix (Vanderbilt PP)
 Gauss-broadening in eV      SIGMA  =   0.05


--------------------------------------------------------------------------------------------------------


  energy-cutoff  :      520.00
  volume of cell :      382.29
      direct lattice vectors                 reciprocal lattice vectors
     2.592201318 -1.496607673  0.000000000     0.385772507  0.000000000  0.000000000
     0.000000000  2.993215347  0.000000000     0.192886253  0.334088892  0.000000000
    -0.000000000  0.000000000 49.270399881     0.000000000  0.000000000  0.020296162

  length of vectors
     2.993216030  2.993215347 49.270399881     0.385772507  0.385772595  0.020296162


 
 k-points in units of 2pi/SCALE and weight: K-Spacing Value to Generate K-Mesh: 0.02
   0.00000000  0.00000000  0.00000000       0.006
   0.02967481  0.00000000  0.00000000       0.036
   0.05934962  0.00000000  0.00000000       0.036
   0.08902442  0.00000000  0.00000000       0.036
   0.11869923  0.00000000  0.00000000       0.036
   0.14837404  0.00000000  0.00000000       0.036
   0.17804885  0.00000000  0.00000000       0.036
   0.04451221  0.02569915  0.00000000       0.036
   0.07418702  0.02569915  0.00000000       0.071
   0.10386183  0.02569915  0.00000000       0.071
   0.13353664  0.02569915  0.00000000       0.071
   0.16321145  0.02569915  0.00000000       0.071
   0.19288625  0.02569915  0.00000000       0.036
   0.08902442  0.05139829  0.00000000       0.036
   0.11869923  0.05139829  0.00000000       0.071
   0.14837404  0.05139829  0.00000000       0.071
   0.17804885  0.05139829  0.00000000       0.071
   0.13353664  0.07709744  0.00000000       0.036
   0.16321145  0.07709744  0.00000000       0.071
   0.19288625  0.07709744  0.00000000       0.036
   0.17804885  0.10279658  0.00000000       0.036
 
 k-points in reciprocal lattice and weights: K-Spacing Value to Generate K-Mesh: 0.02
   0.00000000  0.00000000  0.00000000       0.006
   0.07692308  0.00000000 -0.00000000       0.036
   0.15384615  0.00000000  0.00000000       0.036
   0.23076923  0.00000000  0.00000000       0.036
   0.30769231  0.00000000  0.00000000       0.036
   0.38461538  0.00000000  0.00000000       0.036
   0.46153846  0.00000000  0.00000000       0.036
   0.07692308  0.07692308  0.00000000       0.036
   0.15384615  0.07692308  0.00000000       0.071
   0.23076923  0.07692308  0.00000000       0.071
   0.30769231  0.07692308  0.00000000       0.071
   0.38461538  0.07692308 -0.00000000       0.071
   0.46153846  0.07692308  0.00000000       0.036
   0.15384615  0.15384615  0.00000000       0.036
   0.23076923  0.15384615 -0.00000000       0.071
   0.30769231  0.15384615  0.00000000       0.071
   0.38461538  0.15384615  0.00000000       0.071
   0.23076923  0.23076923  0.00000000       0.036
   0.30769231  0.23076923 -0.00000000       0.071
   0.38461538  0.23076923  0.00000000       0.036
   0.30769231  0.30769231  0.00000000       0.036
 
 position of ions in fractional coordinates (direct lattice) 
   0.00000000  0.00000000  0.29742139
   0.33333300  0.66666700  0.34773794
   0.00000000  0.00000000  0.44865227
   0.33333300  0.66666700  0.49909305
   0.00000000  0.00000000  0.59998492
   0.33333300  0.66666700  0.65043007
   0.00000000  0.00000000  0.75122380
   0.66666700  0.33333300  0.39821016
   0.66666700  0.33333300  0.54954250
   0.66666700  0.33333300  0.70090528
   0.00000000  0.00000000  0.37297581
   0.00000000  0.00000000  0.52431823
   0.00000000  0.00000000  0.67566546
   0.66666700  0.33333300  0.32249996
   0.66666700  0.33333300  0.47387086
   0.66666700  0.33333300  0.62522109
   0.66666700  0.33333300  0.77743547
   0.33333300  0.66666700  0.27120986
   0.33333300  0.66666700  0.42341829
   0.33333300  0.66666700  0.57476628
   0.33333300  0.66666700  0.72614330
   0.00000000  0.00000000  0.02431958
   0.00000000  0.00000000  0.22200209
   0.66666700  0.33333300  0.17626046
   0.33333300  0.66666700  0.07081674
   0.00000000  0.00000000  0.82664416
   0.66666700  0.33333300  0.97782152
   0.33333300  0.66666700  0.87238042
 
 position of ions in cartesian coordinates  (Angst):
  -0.00000000  0.00000000 14.65407076
   0.86406624  1.49660917 17.13318724
  -0.00000000  0.00000000 22.10527684
   0.86406624  1.49660917 24.59051411
  -0.00000000  0.00000000 29.56149689
   0.86406624  1.49660917 32.04694974
  -0.00000000  0.00000000 37.01309719
   1.72813508 -0.00000150 19.61997403
   1.72813508 -0.00000150 27.07617866
   1.72813508 -0.00000150 34.53388354
  -0.00000000  0.00000000 18.37666719
  -0.00000000  0.00000000 25.83336905
  -0.00000000  0.00000000 33.29030754
   1.72813508 -0.00000150 15.88970220
   1.72813508 -0.00000150 23.34780688
   1.72813508 -0.00000150 30.80489311
   1.72813508 -0.00000150 38.30455649
   0.86406624  1.49660917 13.36261845
   0.86406624  1.49660917 20.86198829
   0.86406624  1.49660917 28.31896423
   0.86406624  1.49660917 35.77737100
  -0.00000000  0.00000000  1.19823549
  -0.00000000  0.00000000 10.93813196
   1.72813508 -0.00000150  8.68442335
   0.86406624  1.49660917  3.48916931
  -0.00000000  0.00000000 40.72908847
   1.72813508 -0.00000150 48.17765753
   0.86406624  1.49660917 42.98253235
 


--------------------------------------------------------------------------------------------------------


 k-point  1 :   0.0000 0.0000 0.0000  plane waves:   10443
 k-point  2 :   0.0769 0.0000-0.0000  plane waves:   10425
 k-point  3 :   0.1538 0.0000 0.0000  plane waves:   10391
 k-point  4 :   0.2308 0.0000 0.0000  plane waves:   10352
 k-point  5 :   0.3077 0.0000 0.0000  plane waves:   10292
 k-point  6 :   0.3846 0.0000 0.0000  plane waves:   10236
 k-point  7 :   0.4615 0.0000 0.0000  plane waves:   10244
 k-point  8 :   0.0769 0.0769 0.0000  plane waves:   10407
 k-point  9 :   0.1538 0.0769 0.0000  plane waves:   10378
 k-point 10 :   0.2308 0.0769 0.0000  plane waves:   10317
 k-point 11 :   0.3077 0.0769 0.0000  plane waves:   10280
 k-point 12 :   0.3846 0.0769-0.0000  plane waves:   10244
 k-point 13 :   0.4615 0.0769 0.0000  plane waves:   10206
 k-point 14 :   0.1538 0.1538 0.0000  plane waves:   10327
 k-point 15 :   0.2308 0.1538-0.0000  plane waves:   10286
 k-point 16 :   0.3077 0.1538 0.0000  plane waves:   10268
 k-point 17 :   0.3846 0.1538 0.0000  plane waves:   10230
 k-point 18 :   0.2308 0.2308 0.0000  plane waves:   10288
 k-point 19 :   0.3077 0.2308-0.0000  plane waves:   10241
 k-point 20 :   0.3846 0.2308 0.0000  plane waves:   10272
 k-point 21 :   0.3077 0.3077 0.0000  plane waves:   10282

 maximum and minimum number of plane-waves per node :      2632     2522

 maximum number of plane-waves:     10443
 maximum index in each direction: 
   IXMAX=    5   IYMAX=    5   IZMAX=   91
   IXMIN=   -6   IYMIN=   -5   IZMIN=  -91

 NGX is ok and might be reduce to  24
 NGY is ok and might be reduce to  22
 NGZ is ok and might be reduce to 366

 parallel 3D FFT for wavefunctions:
    minimum data exchange during FFTs selected (reduces bandwidth)
 parallel 3D FFT for charge:
    minimum data exchange during FFTs selected (reduces bandwidth)


 total amount of memory used by VASP on root node   168858. kBytes
========================================================================

   base      :      30000. kBytes
   nonl-proj :      18074. kBytes
   fftplans  :      65174. kBytes
   grid      :      26127. kBytes
   one-center:         56. kBytes
   wavefun   :      29427. kBytes
 
     INWAV:  cpu time    0.00: real time    0.00
 Broyden mixing: mesh for mixing (old mesh)
   NGX = 11   NGY = 11   NGZ =183
  (NGX  = 48   NGY  = 48   NGZ  =756)
  gives a total of  22143 points

 initial charge density was supplied:
 charge density of overlapping atoms calculated
 number of electron     103.0000000 magnetization 
 keeping initial charge density in first step


--------------------------------------------------------------------------------------------------------


 Maximum index for augmentation-charges        23316 (set IRDMAX)


--------------------------------------------------------------------------------------------------------


 First call to EWALD:  gamma=   0.244
 Maximum number of real-space cells 7x 7x 1
 Maximum number of reciprocal cells 1x 1x16

 FEWALD executed in parallel
    FEWALD:  cpu time    0.00: real time    0.00


----------------------------------------- Iteration    1(   1)  ---------------------------------------


    POTLOK:  cpu time    0.12: real time    0.12
    SETDIJ:  cpu time    0.11: real time    0.11
     EDDAV:  cpu time    5.35: real time    5.36
       DOS:  cpu time    0.00: real time    0.00
    --------------------------------------------
      LOOP:  cpu time    5.58: real time    5.59

 eigenvalue-minimisations  :  2788
 total energy-change (2. order) : 0.5552230E+03  (-0.4480381E+04)
 number of electron     103.0000000 magnetization 
 augmentation part      103.0000000 magnetization 

 Free energy of the ion-electron system (eV)
  ---------------------------------------------------
  alpha Z        PSCENC =       126.97786220
  Ewald energy   TEWEN  =     35092.40810269
  -Hartree energ DENC   =    -40190.44050449
  -exchange      EXHF   =         0.00000000
  -V(xc)+E(xc)   XCENC  =      -440.44908674
  PAW double counting   =      4647.26951674    -3871.08436696
  entropy T*S    EENTRO =        -0.00436476
  eigenvalues    EBANDS =       238.79131014
  atomic energy  EATOM  =      4951.75456612
  ---------------------------------------------------
  free energy    TOTEN  =       555.22303493 eV

  energy without entropy =      555.22739969  energy(sigma->0) =      555.22521731


--------------------------------------------------------------------------------------------------------




----------------------------------------- Iteration    1(   2)  ---------------------------------------


     EDDAV:  cpu time    6.34: real time    6.35
       DOS:  cpu time    0.00: real time    0.00
    --------------------------------------------
      LOOP:  cpu time    6.35: real time    6.35

 eigenvalue-minimisations  :  3600
 total energy-change (2. order) :-0.6443430E+03  (-0.6091347E+03)
 number of electron     103.0000000 magnetization 
 augmentation part      103.0000000 magnetization 

 Free energy of the ion-electron system (eV)
  ---------------------------------------------------
  alpha Z        PSCENC =       126.97786220
  Ewald energy   TEWEN  =     35092.40810269
  -Hartree energ DENC   =    -40190.44050449
  -exchange      EXHF   =         0.00000000
  -V(xc)+E(xc)   XCENC  =      -440.44908674
  PAW double counting   =      4647.26951674    -3871.08436696
  entropy T*S    EENTRO =        -0.00551268
  eigenvalues    EBANDS =      -405.55057057
  atomic energy  EATOM  =      4951.75456612
  ---------------------------------------------------
  free energy    TOTEN  =       -89.11999370 eV

  energy without entropy =      -89.11448102  energy(sigma->0) =      -89.11723736


--------------------------------------------------------------------------------------------------------




----------------------------------------- Iteration    1(   3)  ---------------------------------------


     EDDAV:  cpu time    5.85: real time    5.85
       DOS:  cpu time    0.00: real time    0.00
    --------------------------------------------
      LOOP:  cpu time    5.85: real time    5.85

 eigenvalue-minimisations  :  3232
 total energy-change (2. order) :-0.7041955E+02  (-0.7001896E+02)
 number of electron     103.0000000 magnetization 
 augmentation part      103.0000000 magnetization 

 Free energy of the ion-electron system (eV)
  ---------------------------------------------------
  alpha Z        PSCENC =       126.97786220
  Ewald energy   TEWEN  =     35092.40810269
  -Hartree energ DENC   =    -40190.44050449
  -exchange      EXHF   =         0.00000000
  -V(xc)+E(xc)   XCENC  =      -440.44908674
  PAW double counting   =      4647.26951674    -3871.08436696
  entropy T*S    EENTRO =        -0.00703335
  eigenvalues    EBANDS =      -475.96859757
  atomic energy  EATOM  =      4951.75456612
  ---------------------------------------------------
  free energy    TOTEN  =      -159.53954137 eV

  energy without entropy =     -159.53250802  energy(sigma->0) =     -159.53602470


--------------------------------------------------------------------------------------------------------




----------------------------------------- Iteration    1(   4)  ---------------------------------------


     EDDAV:  cpu time    5.82: real time    5.82
       DOS:  cpu time    0.00: real time    0.00
    --------------------------------------------
      LOOP:  cpu time    5.82: real time    5.82

 eigenvalue-minimisations  :  3224
 total energy-change (2. order) :-0.1373919E+01  (-0.1371226E+01)
 number of electron     103.0000000 magnetization 
 augmentation part      103.0000000 magnetization 

 Free energy of the ion-electron system (eV)
  ---------------------------------------------------
  alpha Z        PSCENC =       126.97786220
  Ewald energy   TEWEN  =     35092.40810269
  -Hartree energ DENC   =    -40190.44050449
  -exchange      EXHF   =         0.00000000
  -V(xc)+E(xc)   XCENC  =      -440.44908674
  PAW double counting   =      4647.26951674    -3871.08436696
  entropy T*S    EENTRO =        -0.00717929
  eigenvalues    EBANDS =      -477.34237014
  atomic energy  EATOM  =      4951.75456612
  ---------------------------------------------------
  free energy    TOTEN  =      -160.91345988 eV

  energy without entropy =     -160.90628059  energy(sigma->0) =     -160.90987024


--------------------------------------------------------------------------------------------------------




----------------------------------------- Iteration    1(   5)  ---------------------------------------


     EDDAV:  cpu time    6.08: real time    6.09
       DOS:  cpu time    0.00: real time    0.00
    CHARGE:  cpu time    0.46: real time    0.46
    MIXING:  cpu time    0.00: real time    0.00
    --------------------------------------------
      LOOP:  cpu time    6.55: real time    6.55

 eigenvalue-minimisations  :  3408
 total energy-change (2. order) :-0.3248112E-01  (-0.3245712E-01)
 number of electron     103.0000001 magnetization 
 augmentation part        7.7281427 magnetization 

 Broyden mixing:
  rms(total) = 0.23168E+01    rms(broyden)= 0.23163E+01
  rms(prec ) = 0.23606E+01
  weight for this iteration     100.00

 Free energy of the ion-electron system (eV)
  ---------------------------------------------------
  alpha Z        PSCENC =       126.97786220
  Ewald energy   TEWEN  =     35092.40810269
  -Hartree energ DENC   =    -40190.44050449
  -exchange      EXHF   =         0.00000000
  -V(xc)+E(xc)   XCENC  =      -440.44908674
  PAW double counting   =      4647.26951674    -3871.08436696
  entropy T*S    EENTRO =        -0.00718577
  eigenvalues    EBANDS =      -477.37484478
  atomic energy  EATOM  =      4951.75456612
  ---------------------------------------------------
  free energy    TOTEN  =      -160.94594100 eV

  energy without entropy =     -160.93875523  energy(sigma->0) =     -160.94234811


--------------------------------------------------------------------------------------------------------




----------------------------------------- Iteration    1(   6)  ---------------------------------------


    POTLOK:  cpu time    0.12: real time    0.12
    SETDIJ:  cpu time    0.11: real time    0.11
     EDDAV:  cpu time    5.69: real time    5.70
       DOS:  cpu time    0.00: real time    0.00
    CHARGE:  cpu time    0.45: real time    0.45
    MIXING:  cpu time    0.00: real time    0.00
    --------------------------------------------
      LOOP:  cpu time    6.38: real time    6.38

 eigenvalue-minimisations  :  3136
 total energy-change (2. order) : 0.1653156E+02  (-0.9294403E+01)
 number of electron     103.0000001 magnetization 
 augmentation part        6.2723966 magnetization 

 Broyden mixing:
  rms(total) = 0.77464E+00    rms(broyden)= 0.77361E+00
  rms(prec ) = 0.78405E+00
  weight for this iteration     100.00

 eigenvalues of (default mixing * dielectric matrix)
  average eigenvalue GAMMA=   0.8466
  0.8466

 Free energy of the ion-electron system (eV)
  ---------------------------------------------------
  alpha Z        PSCENC =       126.97786220
  Ewald energy   TEWEN  =     35092.40810269
  -Hartree energ DENC   =    -40387.44216146
  -exchange      EXHF   =         0.00000000
  -V(xc)+E(xc)   XCENC  =      -426.94520203
  PAW double counting   =      5503.32835739    -4730.64288540
  entropy T*S    EENTRO =        -0.00456285
  eigenvalues    EBANDS =      -273.84846209
  atomic energy  EATOM  =      4951.75456612
  ---------------------------------------------------
  free energy    TOTEN  =      -144.41438544 eV

  energy without entropy =     -144.40982258  energy(sigma->0) =     -144.41210401


--------------------------------------------------------------------------------------------------------




----------------------------------------- Iteration    1(   7)  ---------------------------------------


    POTLOK:  cpu time    0.12: real time    0.12
    SETDIJ:  cpu time    0.11: real time    0.11
     EDDAV:  cpu time    5.54: real time    5.55
       DOS:  cpu time    0.00: real time    0.00
    CHARGE:  cpu time    0.45: real time    0.45
    MIXING:  cpu time    0.00: real time    0.00
    --------------------------------------------
      LOOP:  cpu time    6.22: real time    6.23

 eigenvalue-minimisations  :  3014
 total energy-change (2. order) : 0.1553927E+00  (-0.1891441E+00)
 number of electron     103.0000001 magnetization 
 augmentation part        6.3038818 magnetization 

 Broyden mixing:
  rms(total) = 0.47796E+00    rms(broyden)= 0.47794E+00
  rms(prec ) = 0.48344E+00
  weight for this iteration     100.00

 eigenvalues of (default mixing * dielectric matrix)
  average eigenvalue GAMMA=   1.6170
  0.9856  2.2484

 Free energy of the ion-electron system (eV)
  ---------------------------------------------------
  alpha Z        PSCENC =       126.97786220
  Ewald energy   TEWEN  =     35092.40810269
  -Hartree energ DENC   =    -40389.02785962
  -exchange      EXHF   =         0.00000000
  -V(xc)+E(xc)   XCENC  =      -426.45270483
  PAW double counting   =      5803.66322525    -5030.55088589
  entropy T*S    EENTRO =        -0.00752285
  eigenvalues    EBANDS =      -273.02377585
  atomic energy  EATOM  =      4951.75456612
  ---------------------------------------------------
  free energy    TOTEN  =      -144.25899277 eV

  energy without entropy =     -144.25146992  energy(sigma->0) =     -144.25523135


--------------------------------------------------------------------------------------------------------




----------------------------------------- Iteration    1(   8)  ---------------------------------------


    POTLOK:  cpu time    0.12: real time    0.12
    SETDIJ:  cpu time    0.11: real time    0.11
     EDDAV:  cpu time    5.60: real time    5.61
       DOS:  cpu time    0.00: real time    0.00
    CHARGE:  cpu time    0.45: real time    0.46
    MIXING:  cpu time    0.00: real time    0.00
    --------------------------------------------
      LOOP:  cpu time    6.29: real time    6.29

 eigenvalue-minimisations  :  3070
 total energy-change (2. order) : 0.6254380E-01  (-0.6748983E-01)
 number of electron     103.0000001 magnetization 
 augmentation part        6.3594103 magnetization 

 Broyden mixing:
  rms(total) = 0.11774E+00    rms(broyden)= 0.11771E+00
  rms(prec ) = 0.16000E+00
  weight for this iteration     100.00

 eigenvalues of (default mixing * dielectric matrix)
  average eigenvalue GAMMA=   1.3613
  2.4173  0.9346  0.7319

 Free energy of the ion-electron system (eV)
  ---------------------------------------------------
  alpha Z        PSCENC =       126.97786220
  Ewald energy   TEWEN  =     35092.40810269
  -Hartree energ DENC   =    -40394.55397670
  -exchange      EXHF   =         0.00000000
  -V(xc)+E(xc)   XCENC  =      -425.09204310
  PAW double counting   =      6238.31057078    -5464.93041504
  entropy T*S    EENTRO =        -0.00545630
  eigenvalues    EBANDS =      -269.06565962
  atomic energy  EATOM  =      4951.75456612
  ---------------------------------------------------
  free energy    TOTEN  =      -144.19644897 eV

  energy without entropy =     -144.19099267  energy(sigma->0) =     -144.19372082


--------------------------------------------------------------------------------------------------------




----------------------------------------- Iteration    1(   9)  ---------------------------------------


    POTLOK:  cpu time    0.12: real time    0.12
    SETDIJ:  cpu time    0.11: real time    0.11
     EDDAV:  cpu time    5.69: real time    5.70
       DOS:  cpu time    0.00: real time    0.00
    CHARGE:  cpu time    0.46: real time    0.46
    MIXING:  cpu time    0.00: real time    0.00
    --------------------------------------------
      LOOP:  cpu time    6.38: real time    6.38

 eigenvalue-minimisations  :  3122
 total energy-change (2. order) : 0.7545392E-01  (-0.1909063E-01)
 number of electron     103.0000001 magnetization 
 augmentation part        6.3431891 magnetization 

 Broyden mixing:
  rms(total) = 0.60455E-01    rms(broyden)= 0.60454E-01
  rms(prec ) = 0.64493E-01
  weight for this iteration     100.00

 eigenvalues of (default mixing * dielectric matrix)
  average eigenvalue GAMMA=   1.2991
  2.4401  0.9756  0.8903  0.8903

 Free energy of the ion-electron system (eV)
  ---------------------------------------------------
  alpha Z        PSCENC =       126.97786220
  Ewald energy   TEWEN  =     35092.40810269
  -Hartree energ DENC   =    -40401.11317151
  -exchange      EXHF   =         0.00000000
  -V(xc)+E(xc)   XCENC  =      -424.47350291
  PAW double counting   =      6332.80728868    -5559.43767333
  entropy T*S    EENTRO =        -0.00810759
  eigenvalues    EBANDS =      -263.03635939
  atomic energy  EATOM  =      4951.75456612
  ---------------------------------------------------
  free energy    TOTEN  =      -144.12099505 eV

  energy without entropy =     -144.11288746  energy(sigma->0) =     -144.11694125


--------------------------------------------------------------------------------------------------------




----------------------------------------- Iteration    1(  10)  ---------------------------------------


    POTLOK:  cpu time    0.12: real time    0.12
    SETDIJ:  cpu time    0.11: real time    0.11
     EDDAV:  cpu time    5.78: real time    5.79
       DOS:  cpu time    0.00: real time    0.00
    CHARGE:  cpu time    0.45: real time    0.45
    MIXING:  cpu time    0.01: real time    0.01
    --------------------------------------------
      LOOP:  cpu time    6.47: real time    6.47

 eigenvalue-minimisations  :  3334
 total energy-change (2. order) : 0.3889591E-02  (-0.3674602E-02)
 number of electron     103.0000001 magnetization 
 augmentation part        6.3258927 magnetization 

 Broyden mixing:
  rms(total) = 0.24880E-01    rms(broyden)= 0.24864E-01
  rms(prec ) = 0.25401E-01
  weight for this iteration     100.00

 eigenvalues of (default mixing * dielectric matrix)
  average eigenvalue GAMMA=   1.3259
  2.5674  1.7223  0.9500  0.6949  0.6949

 Free energy of the ion-electron system (eV)
  ---------------------------------------------------
  alpha Z        PSCENC =       126.97786220
  Ewald energy   TEWEN  =     35092.40810269
  -Hartree energ DENC   =    -40403.32723346
  -exchange      EXHF   =         0.00000000
  -V(xc)+E(xc)   XCENC  =      -424.29016332
  PAW double counting   =      6325.12789712    -5551.78689030
  entropy T*S    EENTRO =        -0.00801313
  eigenvalues    EBANDS =      -260.97323338
  atomic energy  EATOM  =      4951.75456612
  ---------------------------------------------------
  free energy    TOTEN  =      -144.11710546 eV

  energy without entropy =     -144.10909232  energy(sigma->0) =     -144.11309889


--------------------------------------------------------------------------------------------------------




----------------------------------------- Iteration    1(  11)  ---------------------------------------


    POTLOK:  cpu time    0.12: real time    0.12
    SETDIJ:  cpu time    0.11: real time    0.11
     EDDAV:  cpu time    5.54: real time    5.54
       DOS:  cpu time    0.00: real time    0.00
    CHARGE:  cpu time    0.45: real time    0.45
    MIXING:  cpu time    0.00: real time    0.00
    --------------------------------------------
      LOOP:  cpu time    6.22: real time    6.22

 eigenvalue-minimisations  :  3146
 total energy-change (2. order) :-0.3405752E-02  (-0.1058363E-02)
 number of electron     103.0000001 magnetization 
 augmentation part        6.3230256 magnetization 

 Broyden mixing:
  rms(total) = 0.19430E-01    rms(broyden)= 0.19425E-01
  rms(prec ) = 0.19950E-01
  weight for this iteration     100.00

 eigenvalues of (default mixing * dielectric matrix)
  average eigenvalue GAMMA=   1.3493
  2.6773  2.0716  0.9547  0.7934  0.7993  0.7993

 Free energy of the ion-electron system (eV)
  ---------------------------------------------------
  alpha Z        PSCENC =       126.97786220
  Ewald energy   TEWEN  =     35092.40810269
  -Hartree energ DENC   =    -40404.59759766
  -exchange      EXHF   =         0.00000000
  -V(xc)+E(xc)   XCENC  =      -424.16602139
  PAW double counting   =      6306.45583157    -5533.12412387
  entropy T*S    EENTRO =        -0.00783533
  eigenvalues    EBANDS =      -259.82129553
  atomic energy  EATOM  =      4951.75456612
  ---------------------------------------------------
  free energy    TOTEN  =      -144.12051121 eV

  energy without entropy =     -144.11267588  energy(sigma->0) =     -144.11659354


--------------------------------------------------------------------------------------------------------




----------------------------------------- Iteration    1(  12)  ---------------------------------------


    POTLOK:  cpu time    0.12: real time    0.12
    SETDIJ:  cpu time    0.11: real time    0.11
     EDDAV:  cpu time    6.38: real time    6.39
       DOS:  cpu time    0.00: real time    0.00
    CHARGE:  cpu time    0.45: real time    0.45
    MIXING:  cpu time    0.00: real time    0.00
    --------------------------------------------
      LOOP:  cpu time    7.06: real time    7.07

 eigenvalue-minimisations  :  3656
 total energy-change (2. order) :-0.4248834E-03  (-0.1325416E-03)
 number of electron     103.0000001 magnetization 
 augmentation part        6.3225856 magnetization 

 Broyden mixing:
  rms(total) = 0.10960E-01    rms(broyden)= 0.10960E-01
  rms(prec ) = 0.12435E-01
  weight for this iteration     100.00

 eigenvalues of (default mixing * dielectric matrix)
  average eigenvalue GAMMA=   1.3845
  2.7559  2.4113  1.0223  1.0223  0.9121  0.7839  0.7839

 Free energy of the ion-electron system (eV)
  ---------------------------------------------------
  alpha Z        PSCENC =       126.97786220
  Ewald energy   TEWEN  =     35092.40810269
  -Hartree energ DENC   =    -40404.99739338
  -exchange      EXHF   =         0.00000000
  -V(xc)+E(xc)   XCENC  =      -424.13235610
  PAW double counting   =      6293.40542541    -5520.08257137
  entropy T*S    EENTRO =        -0.00808716
  eigenvalues    EBANDS =      -259.44648450
  atomic energy  EATOM  =      4951.75456612
  ---------------------------------------------------
  free energy    TOTEN  =      -144.12093609 eV

  energy without entropy =     -144.11284894  energy(sigma->0) =     -144.11689251


--------------------------------------------------------------------------------------------------------




----------------------------------------- Iteration    1(  13)  ---------------------------------------


    POTLOK:  cpu time    0.12: real time    0.12
    SETDIJ:  cpu time    0.11: real time    0.11
     EDDAV:  cpu time    5.61: real time    5.62
       DOS:  cpu time    0.00: real time    0.00
    CHARGE:  cpu time    0.45: real time    0.45
    MIXING:  cpu time    0.01: real time    0.01
    --------------------------------------------
      LOOP:  cpu time    6.30: real time    6.31

 eigenvalue-minimisations  :  3072
 total energy-change (2. order) :-0.3354591E-04  (-0.2247189E-03)
 number of electron     103.0000001 magnetization 
 augmentation part        6.3262856 magnetization 

 Broyden mixing:
  rms(total) = 0.35589E-02    rms(broyden)= 0.35507E-02
  rms(prec ) = 0.51605E-02
  weight for this iteration     100.00

 eigenvalues of (default mixing * dielectric matrix)
  average eigenvalue GAMMA=   1.3487
  2.8584  2.4724  1.0644  1.0644  0.9157  0.9157  0.7491  0.7491

 Free energy of the ion-electron system (eV)
  ---------------------------------------------------
  alpha Z        PSCENC =       126.97786220
  Ewald energy   TEWEN  =     35092.40810269
  -Hartree energ DENC   =    -40404.88633678
  -exchange      EXHF   =         0.00000000
  -V(xc)+E(xc)   XCENC  =      -424.14518025
  PAW double counting   =      6283.65995587    -5510.33551075
  entropy T*S    EENTRO =        -0.00789087
  eigenvalues    EBANDS =      -259.54653788
  atomic energy  EATOM  =      4951.75456612
  ---------------------------------------------------
  free energy    TOTEN  =      -144.12096964 eV

  energy without entropy =     -144.11307877  energy(sigma->0) =     -144.11702420


--------------------------------------------------------------------------------------------------------




----------------------------------------- Iteration    1(  14)  ---------------------------------------


    POTLOK:  cpu time    0.12: real time    0.12
    SETDIJ:  cpu time    0.11: real time    0.11
     EDDAV:  cpu time    5.58: real time    5.58
       DOS:  cpu time    0.00: real time    0.00
    CHARGE:  cpu time    0.45: real time    0.45
    MIXING:  cpu time    0.01: real time    0.01
    --------------------------------------------
      LOOP:  cpu time    6.26: real time    6.26

 eigenvalue-minimisations  :  3042
 total energy-change (2. order) :-0.2849506E-04  (-0.2443397E-04)
 number of electron     103.0000001 magnetization 
 augmentation part        6.3258142 magnetization 

 Broyden mixing:
  rms(total) = 0.18445E-02    rms(broyden)= 0.18444E-02
  rms(prec ) = 0.23853E-02
  weight for this iteration     100.00

 eigenvalues of (default mixing * dielectric matrix)
  average eigenvalue GAMMA=   1.3426
  2.9729  2.5314  1.1436  1.1436  0.9685  0.9640  0.9640  0.6977  0.6977

 Free energy of the ion-electron system (eV)
  ---------------------------------------------------
  alpha Z        PSCENC =       126.97786220
  Ewald energy   TEWEN  =     35092.40810269
  -Hartree energ DENC   =    -40404.98917300
  -exchange      EXHF   =         0.00000000
  -V(xc)+E(xc)   XCENC  =      -424.14547537
  PAW double counting   =      6281.93489214    -5508.61025997
  entropy T*S    EENTRO =        -0.00810175
  eigenvalues    EBANDS =      -259.44341119
  atomic energy  EATOM  =      4951.75456612
  ---------------------------------------------------
  free energy    TOTEN  =      -144.12099813 eV

  energy without entropy =     -144.11289639  energy(sigma->0) =     -144.11694726


--------------------------------------------------------------------------------------------------------




----------------------------------------- Iteration    1(  15)  ---------------------------------------


    POTLOK:  cpu time    0.12: real time    0.12
    SETDIJ:  cpu time    0.11: real time    0.11
     EDDAV:  cpu time    5.56: real time    5.56
       DOS:  cpu time    0.00: real time    0.00
    CHARGE:  cpu time    0.46: real time    0.46
    MIXING:  cpu time    0.01: real time    0.01
    --------------------------------------------
      LOOP:  cpu time    6.25: real time    6.26

 eigenvalue-minimisations  :  3020
 total energy-change (2. order) :-0.4399439E-04  (-0.1274771E-04)
 number of electron     103.0000001 magnetization 
 augmentation part        6.3261579 magnetization 

 Broyden mixing:
  rms(total) = 0.13685E-02    rms(broyden)= 0.13677E-02
  rms(prec ) = 0.19018E-02
  weight for this iteration     100.00

 eigenvalues of (default mixing * dielectric matrix)
  average eigenvalue GAMMA=   1.3274
  3.0208  2.5110  1.5397  1.0347  1.0347  0.9806  0.9806  0.7762  0.7762  0.6199

 Free energy of the ion-electron system (eV)
  ---------------------------------------------------
  alpha Z        PSCENC =       126.97786220
  Ewald energy   TEWEN  =     35092.40810269
  -Hartree energ DENC   =    -40405.12023943
  -exchange      EXHF   =         0.00000000
  -V(xc)+E(xc)   XCENC  =      -424.14599514
  PAW double counting   =      6280.95869801    -5507.63261861
  entropy T*S    EENTRO =        -0.00805549
  eigenvalues    EBANDS =      -259.31336246
  atomic energy  EATOM  =      4951.75456612
  ---------------------------------------------------
  free energy    TOTEN  =      -144.12104213 eV

  energy without entropy =     -144.11298663  energy(sigma->0) =     -144.11701438


--------------------------------------------------------------------------------------------------------




----------------------------------------- Iteration    1(  16)  ---------------------------------------


    POTLOK:  cpu time    0.12: real time    0.12
    SETDIJ:  cpu time    0.11: real time    0.11
     EDDAV:  cpu time    4.70: real time    4.70
       DOS:  cpu time    0.00: real time    0.00
    CHARGE:  cpu time    0.45: real time    0.45
    MIXING:  cpu time    0.01: real time    0.01
    --------------------------------------------
      LOOP:  cpu time    5.38: real time    5.39

 eigenvalue-minimisations  :  2384
 total energy-change (2. order) :-0.1500404E-04  (-0.2062251E-05)
 number of electron     103.0000001 magnetization 
 augmentation part        6.3259410 magnetization 

 Broyden mixing:
  rms(total) = 0.90415E-03    rms(broyden)= 0.90411E-03
  rms(prec ) = 0.14317E-02
  weight for this iteration     100.00

 eigenvalues of (default mixing * dielectric matrix)
  average eigenvalue GAMMA=   1.4291
  3.3232  2.4996  2.3902  1.1221  1.1221  1.2375  0.9486  0.8176  0.8176  0.7876
  0.6539

 Free energy of the ion-electron system (eV)
  ---------------------------------------------------
  alpha Z        PSCENC =       126.97786220
  Ewald energy   TEWEN  =     35092.40810269
  -Hartree energ DENC   =    -40405.27401554
  -exchange      EXHF   =         0.00000000
  -V(xc)+E(xc)   XCENC  =      -424.14400323
  PAW double counting   =      6281.37934458    -5508.05321537
  entropy T*S    EENTRO =        -0.00806557
  eigenvalues    EBANDS =      -259.16163301
  atomic energy  EATOM  =      4951.75456612
  ---------------------------------------------------
  free energy    TOTEN  =      -144.12105713 eV

  energy without entropy =     -144.11299156  energy(sigma->0) =     -144.11702434


--------------------------------------------------------------------------------------------------------




----------------------------------------- Iteration    1(  17)  ---------------------------------------


    POTLOK:  cpu time    0.12: real time    0.12
    SETDIJ:  cpu time    0.11: real time    0.11
     EDDAV:  cpu time    5.14: real time    5.15
       DOS:  cpu time    0.00: real time    0.00
    CHARGE:  cpu time    0.45: real time    0.45
    MIXING:  cpu time    0.01: real time    0.01
    --------------------------------------------
      LOOP:  cpu time    5.82: real time    5.83

 eigenvalue-minimisations  :  2706
 total energy-change (2. order) :-0.1698645E-04  (-0.5708913E-05)
 number of electron     103.0000001 magnetization 
 augmentation part        6.3257974 magnetization 

 Broyden mixing:
  rms(total) = 0.76426E-03    rms(broyden)= 0.76397E-03
  rms(prec ) = 0.11923E-02
  weight for this iteration     100.00

 eigenvalues of (default mixing * dielectric matrix)
  average eigenvalue GAMMA=   1.4108
  3.6418  2.6830  2.4692  1.0645  1.0645  1.1336  0.9514  0.8705  0.8705  0.7753
  0.7753  0.6304

 Free energy of the ion-electron system (eV)
  ---------------------------------------------------
  alpha Z        PSCENC =       126.97786220
  Ewald energy   TEWEN  =     35092.40810269
  -Hartree energ DENC   =    -40405.54307140
  -exchange      EXHF   =         0.00000000
  -V(xc)+E(xc)   XCENC  =      -424.14252711
  PAW double counting   =      6281.69402131    -5508.36729157
  entropy T*S    EENTRO =        -0.00804778
  eigenvalues    EBANDS =      -258.89468857
  atomic energy  EATOM  =      4951.75456612
  ---------------------------------------------------
  free energy    TOTEN  =      -144.12107412 eV

  energy without entropy =     -144.11302634  energy(sigma->0) =     -144.11705023


--------------------------------------------------------------------------------------------------------




----------------------------------------- Iteration    1(  18)  ---------------------------------------


    POTLOK:  cpu time    0.12: real time    0.12
    SETDIJ:  cpu time    0.11: real time    0.11
     EDDAV:  cpu time    4.92: real time    4.93
       DOS:  cpu time    0.00: real time    0.00
    --------------------------------------------
      LOOP:  cpu time    5.15: real time    5.16

 eigenvalue-minimisations  :  2552
 total energy-change (2. order) :-0.7246395E-05  (-0.2500912E-05)
 number of electron     103.0000001 magnetization 
 augmentation part        6.3257974 magnetization 

 Free energy of the ion-electron system (eV)
  ---------------------------------------------------
  alpha Z        PSCENC =       126.97786220
  Ewald energy   TEWEN  =     35092.40810269
  -Hartree energ DENC   =    -40405.66269271
  -exchange      EXHF   =         0.00000000
  -V(xc)+E(xc)   XCENC  =      -424.14413692
  PAW double counting   =      6281.78055979    -5508.45295313
  entropy T*S    EENTRO =        -0.00804707
  eigenvalues    EBANDS =      -258.77434234
  atomic energy  EATOM  =      4951.75456612
  ---------------------------------------------------
  free energy    TOTEN  =      -144.12108136 eV

  energy without entropy =     -144.11303430  energy(sigma->0) =     -144.11705783


--------------------------------------------------------------------------------------------------------




 average (electrostatic) potential at core
  the test charge radii are     0.7215  1.0714  1.0406
  (the norm of the test charge is              1.0000)
       1 -71.1258       2 -71.0480       3 -71.0681       4 -71.0675       5 -71.0497
       6 -71.0454       7 -71.1284       8 -71.0672       9 -71.0606      10 -71.0327
      11 -36.6356      12 -36.6404      13 -36.6146      14 -36.6173      15 -36.6436
      16 -36.6218      17 -36.7188      18 -36.7050      19 -36.6442      20 -36.6299
      21 -36.6090      22 -75.1517      23 -75.0232      24 -75.2085      25 -75.2161
      26 -75.0354      27 -75.2172      28 -75.2219
 
 
 
 E-fermi :   5.4719     XC(G=0):  -9.6846     alpha+bet :-11.3733


 k-point     1 :       0.0000    0.0000    0.0000
  band No.  band energies     occupation 
      1     -15.3941      2.00000
      2     -15.3270      2.00000
      3     -15.2325      2.00000
      4     -15.1076      2.00000
      5     -14.9591      2.00000
      6     -14.7933      2.00000
      7     -14.6236      2.00000
      8     -14.4701      2.00000
      9     -14.3477      2.00000
     10     -14.2732      2.00000
     11      -4.4436      2.00000
     12      -4.1515      2.00000
     13      -4.1381      2.00000
     14      -2.8019      2.00000
     15      -2.7167      2.00000
     16      -2.6533      2.00000
     17      -2.4285      2.00000
     18      -2.1262      2.00000
     19      -1.7694      2.00000
     20      -1.3950      2.00000
     21      -1.0223      2.00000
     22      -0.6075      2.00000
     23      -0.1213      2.00000
     24      -0.0006      2.00000
     25       0.4287      2.00000
     26       0.9693      2.00000
     27       1.1531      2.00000
     28       1.1531      2.00000
     29       1.1945      2.00000
     30       1.1945      2.00000
     31       1.2458      2.00000
     32       1.2458      2.00000
     33       1.3115      2.00000
     34       1.3115      2.00000
     35       1.3870      2.00000
     36       1.3870      2.00000
     37       1.4107      2.00000
     38       1.4712      2.00000
     39       1.4712      2.00000
     40       1.5573      2.00000
     41       1.5573      2.00000
     42       1.6326      2.00000
     43       1.6326      2.00000
     44       1.6900      2.00000
     45       1.6900      2.00000
     46       1.7231      2.00000
     47       1.7231      2.00000
     48       2.3344      2.00000
     49       2.3616      2.00000
     50       3.0353      2.00000
     51       5.5819      0.00188
     52       5.6967      0.00000
     53       6.3028      0.00000
     54       6.6776      0.00000
     55       6.8314      0.00000
     56       7.4503      0.00000
     57       7.8470      0.00000
     58       8.3938      0.00000
     59       8.5631      0.00000
     60       9.0191      0.00000
     61       9.1780      0.00000
     62       9.4031      0.00000
     63       9.4686      0.00000
     64       9.7640      0.00000
     65      10.7475      0.00000
     66      11.7471      0.00000

 k-point     2 :       0.0769    0.0000   -0.0000
  band No.  band energies     occupation 
      1     -15.3406      2.00000
      2     -15.2749      2.00000
      3     -15.1825      2.00000
      4     -15.0606      2.00000
      5     -14.9159      2.00000
      6     -14.7544      2.00000
      7     -14.5891      2.00000
      8     -14.4401      2.00000
      9     -14.3214      2.00000
     10     -14.2495      2.00000
     11      -4.3137      2.00000
     12      -4.0227      2.00000
     13      -4.0093      2.00000
     14      -2.7205      2.00000
     15      -2.5885      2.00000
     16      -2.5729      2.00000
     17      -2.3527      2.00000
     18      -2.0571      2.00000
     19      -1.7072      2.00000
     20      -1.3378      2.00000
     21      -0.9761      2.00000
     22      -0.5907      2.00000
     23      -0.1474      2.00000
     24       0.1247      2.00000
     25       0.3425      2.00000
     26       0.8105      2.00000
     27       0.9251      2.00000
     28       0.9718      2.00000
     29       1.0352      2.00000
     30       1.1042      2.00000
     31       1.1091      2.00000
     32       1.1507      2.00000
     33       1.1790      2.00000
     34       1.2024      2.00000
     35       1.2174      2.00000
     36       1.2686      2.00000
     37       1.3142      2.00000
     38       1.3448      2.00000
     39       1.3629      2.00000
     40       1.4285      2.00000
     41       1.4298      2.00000
     42       1.5104      2.00000
     43       1.5166      2.00000
     44       1.5591      2.00000
     45       1.5926      2.00000
     46       1.6505      2.00000
     47       1.6840      2.00000
     48       2.4507      2.00000
     49       2.4812      2.00000
     50       3.1577      2.00000
     51       5.7687      0.00000
     52       5.8928      0.00000
     53       6.6036      0.00000
     54       6.8456      0.00000
     55       7.0925      0.00000
     56       7.6703      0.00000
     57       8.0632      0.00000
     58       8.6064      0.00000
     59       8.7665      0.00000
     60       9.2499      0.00000
     61       9.4132      0.00000
     62       9.6731      0.00000
     63       9.7453      0.00000
     64       9.9364      0.00000
     65      10.8644      0.00000
     66      11.7974      0.00000

 k-point     3 :       0.1538    0.0000    0.0000
  band No.  band energies     occupation 
      1     -15.1873      2.00000
      2     -15.1254      2.00000
      3     -15.0396      2.00000
      4     -14.9268      2.00000
      5     -14.7934      2.00000
      6     -14.6446      2.00000
      7     -14.4927      2.00000
      8     -14.3564      2.00000
      9     -14.2485      2.00000
     10     -14.1838      2.00000
     11      -3.9248      2.00000
     12      -3.6373      2.00000
     13      -3.6240      2.00000
     14      -2.4859      2.00000
     15      -2.3486      2.00000
     16      -2.2014      2.00000
     17      -2.1455      2.00000
     18      -1.8793      2.00000
     19      -1.5648      2.00000
     20      -1.2252      2.00000
     21      -0.8931      2.00000
     22      -0.5786      2.00000
     23      -0.2729      2.00000
     24       0.0256      2.00000
     25       0.2757      2.00000
     26       0.3516      2.00000
     27       0.4023      2.00000
     28       0.4800      2.00000
     29       0.5079      2.00000
     30       0.5239      2.00000
     31       0.5953      2.00000
     32       0.7107      2.00000
     33       0.8677      2.00000
     34       0.9903      2.00000
     35       1.0325      2.00000
     36       1.0356      2.00000
     37       1.0852      2.00000
     38       1.1528      2.00000
     39       1.1919      2.00000
     40       1.2306      2.00000
     41       1.3173      2.00000
     42       1.3226      2.00000
     43       1.4060      2.00000
     44       1.4386      2.00000
     45       1.4836      2.00000
     46       1.5430      2.00000
     47       1.5773      2.00000
     48       2.7707      2.00000
     49       2.8007      2.00000
     50       3.5217      2.00000
     51       6.2049      0.00000
     52       6.3489      0.00000
     53       7.1783      0.00000
     54       7.4343      0.00000
     55       7.7498      0.00000
     56       8.2343      0.00000
     57       8.6076      0.00000
     58       9.1322      0.00000
     59       9.2457      0.00000
     60       9.7873      0.00000
     61       9.9534      0.00000
     62      10.2890      0.00000
     63      10.3545      0.00000
     64      10.4654      0.00000
     65      10.6927      0.00000
     66      10.8497      0.00000

 k-point     4 :       0.2308    0.0000    0.0000
  band No.  band energies     occupation 
      1     -14.9558      2.00000
      2     -14.9005      2.00000
      3     -14.8256      2.00000
      4     -14.7277      2.00000
      5     -14.6126      2.00000
      6     -14.4845      2.00000
      7     -14.3542      2.00000
      8     -14.2383      2.00000
      9     -14.1473      2.00000
     10     -14.0934      2.00000
     11      -3.2788      2.00000
     12      -3.0001      2.00000
     13      -2.9869      2.00000
     14      -2.1371      2.00000
     15      -2.0306      2.00000
     16      -1.8826      2.00000
     17      -1.7043      2.00000
     18      -1.5604      2.00000
     19      -1.5089      2.00000
     20      -1.3020      2.00000
     21      -1.0870      2.00000
     22      -0.8676      2.00000
     23      -0.6573      2.00000
     24      -0.4749      2.00000
     25      -0.3649      2.00000
     26      -0.3492      2.00000
     27      -0.2455      2.00000
     28      -0.0967      2.00000
     29       0.0603      2.00000
     30       0.2251      2.00000
     31       0.4212      2.00000
     32       0.6406      2.00000
     33       0.8305      2.00000
     34       0.8513      2.00000
     35       0.8734      2.00000
     36       0.9271      2.00000
     37       0.9961      2.00000
     38       1.0240      2.00000
     39       1.0756      2.00000
     40       1.1469      2.00000
     41       1.1643      2.00000
     42       1.1775      2.00000
     43       1.2550      2.00000
     44       1.3069      2.00000
     45       1.3345      2.00000
     46       1.3954      2.00000
     47       1.4306      2.00000
     48       3.3041      2.00000
     49       3.3315      2.00000
     50       4.1238      2.00000
     51       6.7746      0.00000
     52       6.9170      0.00000
     53       7.6334      0.00000
     54       8.2320      0.00000
     55       8.2948      0.00000
     56       8.3664      0.00000
     57       8.4181      0.00000
     58       8.5759      0.00000
     59       8.9339      0.00000
     60       9.3545      0.00000
     61       9.7105      0.00000
     62       9.7910      0.00000
     63       9.9717      0.00000
     64      10.3941      0.00000
     65      10.6003      0.00000
     66      10.8646      0.00000

 k-point     5 :       0.3077    0.0000    0.0000
  band No.  band energies     occupation 
      1     -14.6824      2.00000
      2     -14.6360      2.00000
      3     -14.5763      2.00000
      4     -14.4988      2.00000
      5     -14.4084      2.00000
      6     -14.3079      2.00000
      7     -14.2060      2.00000
      8     -14.1163      2.00000
      9     -14.0470      2.00000
     10     -14.0066      2.00000
     11      -2.3791      2.00000
     12      -2.1346      2.00000
     13      -2.1226      2.00000
     14      -1.9142      2.00000
     15      -1.8849      2.00000
     16      -1.8068      2.00000
     17      -1.7870      2.00000
     18      -1.6838      2.00000
     19      -1.6342      2.00000
     20      -1.4880      2.00000
     21      -1.3624      2.00000
     22      -1.2382      2.00000
     23      -1.1620      2.00000
     24      -1.1004      2.00000
     25      -0.8790      2.00000
     26      -0.6682      2.00000
     27      -0.5659      2.00000
     28      -0.2272      2.00000
     29       0.1067      2.00000
     30       0.4031      2.00000
     31       0.6306      2.00000
     32       0.6696      2.00000
     33       0.7129      2.00000
     34       0.7674      2.00000
     35       0.7726      2.00000
     36       0.8375      2.00000
     37       0.8862      2.00000
     38       0.9183      2.00000
     39       0.9834      2.00000
     40       1.0085      2.00000
     41       1.0759      2.00000
[...]
     17      -1.8512      2.00000
     18      -1.7635      2.00000
     19      -1.6256      2.00000
     20      -1.4894      2.00000
     21      -1.0990      2.00000
     22      -0.9566      2.00000
     23      -0.8292      2.00000
     24      -0.6821      2.00000
     25      -0.4993      2.00000
     26      -0.4955      2.00000
     27      -0.3915      2.00000
     28      -0.3391      2.00000
     29      -0.2587      2.00000
     30      -0.1271      2.00000
     31      -0.0448      2.00000
     32       0.0212      2.00000
     33       0.1432      2.00000
     34       0.2826      2.00000
     35       0.3142      2.00000
     36       0.4538      2.00000
     37       0.5105      2.00000
     38       0.5891      2.00000
     39       0.6348      2.00000
     40       0.6611      2.00000
     41       0.6920      2.00000
     42       0.7764      2.00000
     43       0.8690      2.00000
     44       1.9873      2.00000
     45       3.2358      2.00000
     46       3.2631      2.00000
     47       3.5039      2.00000
     48       3.8331      2.00000
     49       3.8640      2.00000
     50       4.6494      2.00000
     51       5.1885      2.00000
     52       5.2775      2.00000
     53       5.3814      1.99260
     54       5.4128      1.92662
     55       6.1771      0.00000
     56       6.2038      0.00000
     57       6.6765      0.00000
     58       6.7039      0.00000
     59       6.8700      0.00000
     60       7.5171      0.00000
     61       7.8884      0.00000
     62       7.9151      0.00000
     63       8.1787      0.00000
     64       9.4738      0.00000
     65       9.5003      0.00000
     66       9.5707      0.00000

 k-point    20 :       0.3846    0.2308    0.0000
  band No.  band energies     occupation 
      1     -14.1703      2.00000
      2     -14.1469      2.00000
      3     -14.1332      2.00000
      4     -14.1262      2.00000
      5     -14.1080      2.00000
      6     -14.0872      2.00000
      7     -14.0645      2.00000
      8     -14.0478      2.00000
      9     -14.0336      2.00000
     10     -14.0054      2.00000
     11      -2.3250      2.00000
     12      -2.2229      2.00000
     13      -2.0810      2.00000
     14      -1.9143      2.00000
     15      -1.8663      2.00000
     16      -1.8285      2.00000
     17      -1.7901      2.00000
     18      -1.7652      2.00000
     19      -1.7366      2.00000
     20      -1.7061      2.00000
     21      -0.9100      2.00000
     22      -0.8681      2.00000
     23      -0.8406      2.00000
     24      -0.8331      2.00000
     25      -0.7573      2.00000
     26      -0.7383      2.00000
     27      -0.6787      2.00000
     28      -0.5176      2.00000
     29      -0.3545      2.00000
     30      -0.1984      2.00000
     31       0.0919      2.00000
     32       0.1109      2.00000
     33       0.2821      2.00000
     34       0.3032      2.00000
     35       0.4190      2.00000
     36       0.4322      2.00000
     37       0.5797      2.00000
     38       0.6819      2.00000
     39       0.7271      2.00000
     40       0.7507      2.00000
     41       1.7413      2.00000
     42       1.8190      2.00000
     43       1.9545      2.00000
     44       1.9860      2.00000
     45       2.1919      2.00000
     46       2.2232      2.00000
     47       3.2744      2.00000
     48       3.7191      2.00000
     49       4.5382      2.00000
     50       4.5648      2.00000
     51       4.8341      2.00000
     52       4.8622      2.00000
     53       4.9669      2.00000
     54       5.3146      2.00000
     55       5.3452      1.99979
     56       6.0387      0.00000
     57       6.4565      0.00000
     58       6.8206      0.00000
     59       7.4662      0.00000
     60       7.4913      0.00000
     61       7.5970      0.00000
     62       7.6242      0.00000
     63       8.6174      0.00000
     64       8.6454      0.00000
     65       8.8904      0.00000
     66       9.1941      0.00000

 k-point    21 :       0.3077    0.3077    0.0000
  band No.  band energies     occupation 
      1     -14.1360      2.00000
      2     -14.1160      2.00000
      3     -14.1038      2.00000
      4     -14.1004      2.00000
      5     -14.0859      2.00000
      6     -14.0709      2.00000
      7     -14.0538      2.00000
      8     -14.0481      2.00000
      9     -14.0313      2.00000
     10     -14.0084      2.00000
     11      -1.9702      2.00000
     12      -1.9667      2.00000
     13      -1.8788      2.00000
     14      -1.8715      2.00000
     15      -1.7654      2.00000
     16      -1.7545      2.00000
     17      -1.6362      2.00000
     18      -1.5731      2.00000
     19      -1.4954      2.00000
     20      -1.4430      2.00000
     21      -1.3287      2.00000
     22      -1.2673      2.00000
     23      -1.1412      2.00000
     24      -1.1032      2.00000
     25      -0.9825      2.00000
     26      -0.9375      2.00000
     27      -0.8287      2.00000
     28      -0.7532      2.00000
     29      -0.6680      2.00000
     30      -0.6319      2.00000
     31       0.0987      2.00000
     32       0.1245      2.00000
     33       0.2925      2.00000
     34       0.4327      2.00000
     35       0.4924      2.00000
     36       0.5106      2.00000
     37       0.5599      2.00000
     38       0.5707      2.00000
     39       0.6085      2.00000
     40       0.7030      2.00000
     41       1.6574      2.00000
     42       1.9397      2.00000
     43       1.9711      2.00000
     44       3.1884      2.00000
     45       3.2307      2.00000
     46       3.4137      2.00000
     47       3.4302      2.00000
     48       3.4456      2.00000
     49       3.6796      2.00000
     50       3.7108      2.00000
     51       4.6051      2.00000
     52       4.6317      2.00000
     53       4.8398      2.00000
     54       5.1930      2.00000
     55       5.9934      0.00000
     56       6.0201      0.00000
     57       6.1881      0.00000
     58       6.2712      0.00000
     59       6.2984      0.00000
     60       7.5282      0.00000
     61       7.6397      0.00000
     62       7.6664      0.00000
     63       7.9363      0.00000
     64       9.0521      0.00000
     65       9.0877      0.00000
     66       9.1196      0.00000


--------------------------------------------------------------------------------------------------------


 soft charge-density along one line, spin component           1
         0         1         2         3         4         5         6         7         8         9
 total charge-density along one line
 
 pseudopotential strength for first ion, spin component:           1
 12.347   0.000 -15.036   0.000   0.000   0.000  -0.003   0.000  -0.000   0.000  -0.000   0.000   0.004   0.000   0.000   0.000
-15.036   0.000  18.331   0.000  -0.000   0.000   0.004   0.000   0.000   0.000   0.000   0.000  -0.005   0.000  -0.000   0.000
  0.000   0.000  -0.000   0.000  -8.539   0.000  -0.000   0.000   0.000   0.000  10.268   0.000   0.000   0.000  -0.000   0.000
 -0.003   0.000   0.004   0.000  -0.000   0.000  -8.541   0.000   0.000   0.000   0.000   0.000  10.271   0.000  -0.000   0.000
 -0.000   0.000   0.000   0.000   0.000   0.000   0.000   0.000  -8.539   0.000  -0.000   0.000  -0.000   0.000  10.268   0.000
 -0.000   0.000   0.000   0.000  10.268   0.000   0.000   0.000  -0.000   0.000 -12.197   0.000  -0.000   0.000   0.000   0.000
  0.004   0.000  -0.005   0.000   0.000   0.000  10.271   0.000  -0.000   0.000  -0.000   0.000 -12.201   0.000   0.000   0.000
  0.000   0.000  -0.000   0.000  -0.000   0.000  -0.000   0.000  10.268   0.000   0.000   0.000   0.000   0.000 -12.197   0.000
 total augmentation occupancy for first ion, spin component:           1
  2.592   0.359   0.000   0.012  -0.000   0.000   0.002  -0.000
  0.359   0.074   0.000   0.007  -0.000  -0.000  -0.003   0.000
  0.000  -0.000   2.146  -0.000  -0.000   0.256  -0.000  -0.000
  0.012   0.007  -0.000   2.136  -0.000  -0.000   0.255  -0.000
 -0.000  -0.000  -0.000  -0.000   2.146  -0.000  -0.000   0.256
  0.000  -0.000   0.256  -0.000   0.000   0.033   0.000  -0.000
  0.002  -0.003  -0.000   0.255  -0.000   0.000   0.035  -0.000
 -0.000   0.000  -0.000  -0.000   0.256  -0.000  -0.000   0.033


------------------------ aborting loop because EDIFF is reached ----------------------------------------


    CHARGE:  cpu time    0.45: real time    0.45
    FORLOC:  cpu time    0.04: real time    0.04
    FORNL :  cpu time    3.88: real time    3.88
    STRESS:  cpu time    4.87: real time    4.87
    FORCOR:  cpu time    0.16: real time    0.16
    FORHAR:  cpu time    0.07: real time    0.07
    MIXING:  cpu time    0.00: real time    0.00
    OFIELD:  cpu time    0.00: real time    0.00

  FORCE on cell =-STRESS in cart. coord.  units (eV):
  Direction    XX          YY          ZZ          XY          YZ          ZX
  --------------------------------------------------------------------------------------
  Alpha Z   126.97786   126.97786   126.97786
  Ewald   39343.63437 39343.63480-42055.36012    -0.00012     0.00004    -0.00019
  Hartree 40988.73707 40988.73698-40037.84537    -0.00000     0.00000     0.00005
  E(xc)    -425.24612  -425.24613  -426.00902     0.00000    -0.00000     0.00000
  Local  -81568.26025-81568.25980 80856.20636    -0.00011    -0.00005     0.00009
  n-local   -41.34737   -53.74476   -44.82601     2.66959    -1.68565     6.26629
  augment    60.29172    60.29147    59.97138     0.00018    -0.00000     0.00000
  Kinetic  1535.01975  1501.36453  1519.05207     1.44936    -0.61275     3.28694
  Fock        0.00000     0.00000     0.00000     0.00000     0.00000     0.00000
  -------------------------------------------------------------------------------------
  Total      -3.21902    -3.21902    -1.83284     0.00000     0.00000    -0.00000
  in kB     -13.49093   -13.49092    -7.68144     0.00000     0.00000    -0.00000
  external pressure =      -11.55 kB  Pullay stress =        0.00 kB


 VOLUME and BASIS-vectors are now :
 -----------------------------------------------------------------------------
  energy-cutoff  :      520.00
  volume of cell :      382.29
      direct lattice vectors                 reciprocal lattice vectors
     2.592201318 -1.496607673  0.000000000     0.385772507  0.000000000  0.000000000
     0.000000000  2.993215347  0.000000000     0.192886253  0.334088892  0.000000000
    -0.000000000  0.000000000 49.270399881     0.000000000  0.000000000  0.020296162

  length of vectors
     2.993216030  2.993215347 49.270399881     0.385772507  0.385772595  0.020296162


 FORCES acting on ions
    electron-ion (+dipol)            ewald-force                    non-local-force                 convergence-correction
 -----------------------------------------------------------------------------------------------
   -.472E-03 0.823E-03 0.179E+04   -.377E-05 0.291E-05 -.179E+04   -.398E-17 0.141E-17 0.938E+00   0.533E-08 -.890E-08 -.106E-01
   0.587E-03 -.102E-02 0.140E+04   0.587E-04 -.102E-03 -.140E+04   -.475E-18 0.651E-18 0.267E-01   0.820E-08 -.139E-07 -.242E-01
   -.473E-03 0.820E-03 0.598E+03   -.342E-07 0.438E-07 -.598E+03   -.143E-18 0.000E+00 0.264E-01   0.257E-08 -.394E-08 -.130E-01
   0.588E-03 -.102E-02 0.200E+03   0.587E-04 -.102E-03 -.200E+03   0.791E-19 0.305E-19 -.170E-01   0.526E-08 -.951E-08 -.321E-02
   -.473E-03 0.820E-03 -.598E+03   0.300E-07 -.390E-07 0.598E+03   0.148E-18 0.000E+00 -.264E-01   0.323E-09 -.108E-08 0.131E-01
   0.588E-03 -.102E-02 -.998E+03   0.587E-04 -.102E-03 0.998E+03   0.179E-19 0.847E-20 -.602E-02   -.254E-08 0.465E-08 0.301E-01
   -.478E-03 0.824E-03 -.179E+04   0.377E-05 -.292E-05 0.179E+04   0.381E-17 -.130E-17 -.938E+00   0.656E-08 -.117E-07 0.106E-01
   -.153E-02 0.266E-02 0.998E+03   -.587E-04 0.102E-03 -.998E+03   -.184E-19 -.339E-20 0.602E-02   0.409E-08 -.735E-08 -.301E-01
   -.153E-02 0.266E-02 -.200E+03   -.587E-04 0.102E-03 0.200E+03   -.807E-19 -.271E-19 0.170E-01   -.119E-07 0.211E-07 0.332E-02
   -.153E-02 0.266E-02 -.140E+04   -.587E-04 0.102E-03 0.140E+04   0.465E-18 -.651E-18 -.267E-01   -.180E-07 0.309E-07 0.242E-01
   0.230E-04 -.399E-04 0.399E+03   0.347E-07 -.392E-07 -.399E+03   0.237E-20 0.000E+00 -.388E-02   -.973E-09 0.176E-08 -.105E-01
   0.231E-04 -.399E-04 -.628E-03   0.225E-08 -.251E-08 0.117E-01   -.216E-20 0.271E-19 0.000E+00   0.106E-10 -.185E-10 0.185E-04
   0.231E-04 -.399E-04 -.399E+03   -.368E-07 0.417E-07 0.399E+03   0.228E-20 0.000E+00 0.388E-02   0.100E-08 -.182E-08 0.105E-01
   0.679E-04 -.118E-03 0.532E+03   -.503E-04 0.869E-04 -.532E+03   -.436E-19 -.434E-18 -.253E-01   0.805E-09 -.158E-08 -.471E-02
   0.674E-04 -.117E-03 0.133E+03   -.500E-04 0.866E-04 -.133E+03   0.314E-19 0.000E+00 0.216E-02   0.105E-08 -.190E-08 -.122E-02
   0.675E-04 -.117E-03 -.266E+03   -.501E-04 0.868E-04 0.266E+03   -.948E-21 0.000E+00 0.128E-02   0.518E-09 -.899E-09 0.808E-02
   0.446E-04 -.622E-04 -.645E+03   -.260E-04 0.281E-04 0.646E+03   -.155E-17 0.347E-17 -.565E+00   0.219E-09 -.450E-09 0.290E-02
   -.199E-04 0.194E-04 0.645E+03   0.260E-04 -.281E-04 -.646E+03   -.367E-17 -.347E-17 0.565E+00   -.267E-09 0.534E-09 -.290E-02
   -.213E-04 0.369E-04 0.266E+03   0.501E-04 -.868E-04 -.266E+03   0.161E-20 0.000E+00 -.128E-02   -.511E-09 0.885E-09 -.806E-02
   -.213E-04 0.369E-04 -.133E+03   0.500E-04 -.866E-04 0.133E+03   -.213E-19 0.000E+00 -.216E-02   -.101E-08 0.184E-08 0.125E-02
   -.215E-04 0.371E-04 -.532E+03   0.503E-04 -.869E-04 0.532E+03   0.206E-19 0.217E-18 0.253E-01   -.819E-09 0.161E-08 0.472E-02
   0.520E-05 -.901E-05 0.126E-02   -.227E-09 0.225E-09 0.542E-02   -.117E-19 0.000E+00 0.325E-18   -.500E-11 0.867E-11 -.184E-04
   0.392E-05 -.745E-05 0.817E+03   0.138E-05 -.132E-05 -.817E+03   0.702E-17 -.694E-17 -.252E+00   -.121E-10 0.215E-10 -.332E-02
   0.200E-04 -.339E-04 0.700E+03   -.257E-05 0.242E-05 -.698E+03   0.283E-16 0.000E+00 -.172E+01   0.117E-10 -.142E-10 -.305E-02
   -.101E-04 0.170E-04 0.122E+03   0.236E-05 -.222E-05 -.124E+03   0.272E-16 0.555E-16 0.160E+01   -.540E-12 -.386E-11 -.321E-02
   0.462E-05 -.735E-05 -.817E+03   -.138E-05 0.132E-05 0.817E+03   -.703E-17 0.139E-16 0.252E+00   -.559E-11 0.918E-11 0.330E-02
   0.198E-04 -.337E-04 -.122E+03   -.236E-05 0.222E-05 0.124E+03   -.272E-16 -.555E-16 -.160E+01   0.461E-11 -.320E-11 0.317E-02
   -.104E-04 0.172E-04 -.700E+03   0.257E-05 -.242E-05 0.698E+03   -.214E-16 0.000E+00 0.172E+01   -.846E-11 0.856E-11 0.302E-02
 -----------------------------------------------------------------------------------------------
   -.447E-02 0.775E-02 -.623E+00   0.160E-13 -.104E-13 0.796E-12   0.145E-17 0.687E-17 -.178E-14   -.161E-09 0.278E-09 0.264E-03
 
 
 POSITION                                       TOTAL-FORCE (eV/Angst)
 -----------------------------------------------------------------------------------
     -0.00000     -0.00000     14.75810        -0.000000      0.000000      0.003527
      0.86407      1.49661     17.21418        -0.000000      0.000000      0.013782
     -0.00000      0.00000     22.13867        -0.000000     -0.000000      0.013695
      0.86407      1.49661     24.60244         0.000000     -0.000000     -0.009798
     -0.00000     -0.00000     29.52810         0.000000     -0.000000     -0.013695
      0.86407      1.49661     31.98940         0.000000      0.000000      0.000965
     -0.00000      0.00000     36.90906         0.000000     -0.000000     -0.003527
      1.72814     -0.00000     19.67753        -0.000000     -0.000000     -0.000965
      1.72814     -0.00000     27.06426        -0.000000      0.000000      0.009798
      1.72814     -0.00000     34.45289         0.000000     -0.000000     -0.013782
     -0.00000      0.00000     18.44623         0.000000     -0.000000     -0.014902
     -0.00000      0.00000     25.83337         0.000000     -0.000000      0.000000
     -0.00000      0.00000     33.22074        -0.000000     -0.000000      0.014902
      1.72814     -0.00000     15.98281        -0.000000     -0.000000      0.011836
      1.72814     -0.00000     23.37041        -0.000000     -0.000000      0.004408
      1.72814     -0.00000     30.75850        -0.000000     -0.000000      0.006607
      1.72814     -0.00000     38.18644         0.000000     -0.000000     -0.003953
      0.86407      1.49661     13.48074        -0.000000     -0.000000      0.003953
      0.86407      1.49661     20.90838         0.000000     -0.000000     -0.006607
      0.86407      1.49661     28.29636         0.000000     -0.000000     -0.004408
      0.86407      1.49661     35.68426         0.000000     -0.000000     -0.011836
     -0.00000      0.00000      1.19824         0.000000     -0.000000      0.000000
     -0.00000      0.00000     11.08169         0.000000     -0.000000     -0.001105
      1.72814     -0.00000      8.84886        -0.000000     -0.000000      0.007965
      0.86407      1.49661      3.46957         0.000000     -0.000000     -0.003205
     -0.00000      0.00000     40.58553        -0.000000     -0.000000      0.001105
      1.72814     -0.00000     48.19725        -0.000000     -0.000000      0.003205
      0.86407      1.49661     42.81810         0.000000     -0.000000     -0.007965
 -----------------------------------------------------------------------------------
    total drift:                               -0.004474      0.007749     -0.623153


--------------------------------------------------------------------------------------------------------



  FREE ENERGIE OF THE ION-ELECTRON SYSTEM (eV)
  ---------------------------------------------------
  free  energy   TOTEN  =      -144.15051467 eV

  energy  without entropy=     -144.14324867  energy(sigma->0) =     -144.14688167
 
 d Force = 0.1931368E-03[ 0.117E-03, 0.269E-03]  d Energy = 0.1885261E-03 0.461E-05
 d Force =-0.9828637E+01[-0.983E+01,-0.983E+01]  d Ewald  =-0.9828637E+01 0.743E-07


--------------------------------------------------------------------------------------------------------


    POTLOK:  cpu time    0.23: real time    0.23


--------------------------------------------------------------------------------------------------------


 Conjugate gradient step on ions:
 trial-energy change:   -0.000189  1 .order   -0.000193   -0.000269   -0.000117
  (g-gl).g = 0.347E-03      g.g   = 0.444E-03  gl.gl    = 0.176E-02
 g(Force)  = 0.444E-03   g(Stress)= 0.000E+00 ortho     = 0.433E-04
 gamma     =   0.19772
 trial     =   0.59501
 opt step  =   1.05000  (harmonic =   1.05000) maximal distance =0.00256358
 next E    =  -144.150564   (d E  =  -0.00024)


--------------------------------------------------------------------------------------------------------


  
 reached required accuracy - stopping structural energy minimisation
     LOOP+:  cpu time   40.95: real time   40.98
    4ORBIT:  cpu time    0.00: real time    0.00

 total amount of memory used by VASP on root node   168858. kBytes
========================================================================

   base      :      30000. kBytes
   nonl-proj :      18074. kBytes
   fftplans  :      65174. kBytes
   grid      :      26127. kBytes
   one-center:         56. kBytes
   wavefun   :      29427. kBytes
 
  
  
 General timing and accounting informations for this job:
 ========================================================
  
                  Total CPU time used (sec):     2399.638
                            User time (sec):     2376.889
                          System time (sec):       22.749
                         Elapsed time (sec):     2401.375
  
                   Maximum memory used (kb):      282960.
                   Average memory used (kb):           0.
  
                          Minor page faults:       549037
                          Major page faults:            0
                 Voluntary context switches:          127
