       N       E                     dE             d eps       ncg     rms          rms(c)
DAV:   1     0.520325504839E+03    0.52033E+03   -0.45579E+04  2780   0.135E+03
DAV:   2    -0.102161386385E+03   -0.62249E+03   -0.59199E+03  3582   0.258E+02
DAV:   3    -0.160988570254E+03   -0.58827E+02   -0.58470E+02  3232   0.856E+01
DAV:   4    -0.161765122165E+03   -0.77655E+00   -0.77528E+00  3240   0.106E+01
DAV:   5    -0.161777191239E+03   -0.12069E-01   -0.12064E-01  3352   0.129E+00    0.231E+01
DAV:   6    -0.145774156416E+03    0.16003E+02   -0.92947E+01  3120   0.302E+01    0.783E+00
DAV:   7    -0.145640036979E+03    0.13412E+00   -0.17687E+00  3034   0.521E+00    0.477E+00
DAV:   8    -0.145525084019E+03    0.11495E+00   -0.51648E-01  3204   0.403E+00    0.792E-01
DAV:   9    -0.145512953884E+03    0.12130E-01   -0.91419E-02  3140   0.119E+00    0.485E-01
DAV:  10    -0.145512386002E+03    0.56788E-03   -0.38759E-02  3156   0.804E-01    0.246E-01
DAV:  11    -0.145512922872E+03   -0.53687E-03   -0.35395E-03  3108   0.263E-01    0.177E-01
DAV:  12    -0.145512661573E+03    0.26130E-03   -0.26355E-03  3934   0.288E-01    0.675E-02
DAV:  13    -0.145512614971E+03    0.46602E-04   -0.14036E-03  3172   0.155E-01    0.500E-02
DAV:  14    -0.145512542620E+03    0.72351E-04   -0.18056E-04  3480   0.773E-02    0.285E-02
DAV:  15    -0.145512481234E+03    0.61386E-04   -0.81985E-05  3284   0.650E-02    0.151E-02
DAV:  16    -0.145512449708E+03    0.31527E-04   -0.71238E-05  3118   0.552E-02    0.806E-03
DAV:  17    -0.145512419410E+03    0.30298E-04   -0.29801E-05  2426   0.444E-02    0.942E-03
DAV:  18    -0.145512382016E+03    0.37394E-04   -0.47303E-05  2778   0.828E-02    0.145E-02
DAV:  19    -0.145512368848E+03    0.13168E-04   -0.54147E-05  2906   0.559E-02    0.836E-03
DAV:  20    -0.145512353718E+03    0.15130E-04   -0.42413E-05  3004   0.849E-02    0.768E-03
DAV:  21    -0.145512349114E+03    0.46037E-05   -0.42019E-05  2724   0.533E-02
   1 F= -.14551235E+03 E0= -.14551035E+03  d E =-.145512E+03
       N       E                     dE             d eps       ncg     rms          rms(c)
DAV:   1    -0.145512946387E+03   -0.59267E-03   -0.14808E-02  2838   0.537E-01    0.225E-02
DAV:   2    -0.145512977778E+03   -0.31391E-04   -0.53622E-04  3178   0.940E-02    0.175E-02
DAV:   3    -0.145512971217E+03    0.65604E-05   -0.16375E-05  2204   0.210E-02    0.127E-02
DAV:   4    -0.145512964035E+03    0.71823E-05   -0.26653E-05  2530   0.285E-02    0.551E-03
DAV:   5    -0.145512960916E+03    0.31189E-05   -0.61547E-06  1758   0.164E-02    0.549E-03
DAV:   6    -0.145512956962E+03    0.39543E-05   -0.25106E-06  1934   0.165E-02
   2 F= -.14551296E+03 E0= -.14551090E+03  d E =-.607848E-03
       N       E                     dE             d eps       ncg     rms          rms(c)
DAV:   1    -0.145513460866E+03   -0.49995E-03   -0.83652E-02  2790   0.127E+00    0.542E-02
DAV:   2    -0.145513641316E+03   -0.18045E-03   -0.30801E-03  3134   0.223E-01    0.420E-02
DAV:   3    -0.145513602631E+03    0.38685E-04   -0.91801E-05  3166   0.497E-02    0.296E-02
DAV:   4    -0.145513561294E+03    0.41337E-04   -0.21452E-04  3162   0.780E-02    0.168E-02
DAV:   5    -0.145513548119E+03    0.13175E-04   -0.42465E-05  2892   0.305E-02    0.148E-02
DAV:   6    -0.145513530601E+03    0.17517E-04   -0.19144E-05  2186   0.236E-02    0.676E-03
DAV:   7    -0.145513514054E+03    0.16547E-04   -0.12675E-05  2100   0.310E-02    0.579E-03
DAV:   8    -0.145513491437E+03    0.22617E-04   -0.92131E-06  2016   0.569E-02    0.644E-03
DAV:   9    -0.145513472823E+03    0.18614E-04   -0.20451E-05  2434   0.666E-02    0.538E-03
DAV:  10    -0.145513456557E+03    0.16266E-04   -0.25539E-05  2462   0.871E-02    0.377E-03
DAV:  11    -0.145513453907E+03    0.26501E-05   -0.47706E-05  2826   0.597E-02
   3 F= -.14551345E+03 E0= -.14551126E+03  d E =-.110479E-02
       N       E                     dE             d eps       ncg     rms          rms(c)
DAV:   1    -0.145513731622E+03   -0.27507E-03   -0.63542E-02  2848   0.107E+00    0.340E-02
DAV:   2    -0.145513864343E+03   -0.13272E-03   -0.15160E-03  3070   0.149E-01    0.196E-02
DAV:   3    -0.145513855306E+03    0.90366E-05   -0.13480E-05  2186   0.198E-02    0.134E-02
DAV:   4    -0.145513848838E+03    0.64685E-05   -0.23403E-05  2466   0.267E-02    0.414E-03
DAV:   5    -0.145513849016E+03   -0.17852E-06   -0.80634E-06  1476   0.123E-02    0.369E-03
DAV:   6    -0.145513848520E+03    0.49637E-06   -0.16903E-06  1470   0.778E-03
   4 F= -.14551385E+03 E0= -.14551162E+03  d E =-.394613E-03
       N       E                     dE             d eps       ncg     rms          rms(c)
DAV:   1    -0.145513453928E+03    0.39509E-03   -0.57365E-01  2836   0.322E+00    0.101E-01
DAV:   2    -0.145514665246E+03   -0.12113E-02   -0.13752E-02  3064   0.451E-01    0.584E-02
DAV:   3    -0.145514584197E+03    0.81049E-04   -0.13433E-04  3256   0.588E-02    0.403E-02
DAV:   4    -0.145514517364E+03    0.66833E-04   -0.18056E-04  3228   0.770E-02    0.145E-02
DAV:   5    -0.145514511158E+03    0.62056E-05   -0.72569E-05  3006   0.426E-02    0.124E-02
DAV:   6    -0.145514501057E+03    0.10101E-04   -0.16338E-05  1944   0.283E-02    0.567E-03
DAV:   7    -0.145514487579E+03    0.13478E-04   -0.73989E-06  1866   0.394E-02    0.479E-03
DAV:   8    -0.145514468301E+03    0.19279E-04   -0.84629E-06  2044   0.576E-02    0.547E-03
DAV:   9    -0.145514450230E+03    0.18071E-04   -0.17518E-05  2318   0.621E-02    0.454E-03
DAV:  10    -0.145514427286E+03    0.22944E-04   -0.23256E-05  2432   0.102E-01    0.853E-03
DAV:  11    -0.145514414773E+03    0.12513E-04   -0.45602E-05  3124   0.107E-01    0.901E-03
DAV:  12    -0.145514418461E+03   -0.36884E-05   -0.78137E-05  2670   0.418E-02
   5 F= -.14551442E+03 E0= -.14551211E+03  d E =-.964555E-03
       N       E                     dE             d eps       ncg     rms          rms(c)
DAV:   1    -0.145514738349E+03   -0.32358E-03   -0.64736E-02  2816   0.110E+00    0.379E-02
DAV:   2    -0.145514872807E+03   -0.13446E-03   -0.17446E-03  3118   0.172E-01    0.245E-02
DAV:   3    -0.145514861344E+03    0.11463E-04   -0.64122E-05  3124   0.408E-02    0.198E-02
DAV:   4    -0.145514851248E+03    0.10095E-04   -0.25730E-05  2232   0.262E-02    0.980E-03
DAV:   5    -0.145514841952E+03    0.92963E-05   -0.97132E-06  1946   0.318E-02    0.607E-03
DAV:   6    -0.145514836997E+03    0.49550E-05   -0.12265E-05  2054   0.345E-02
   6 F= -.14551484E+03 E0= -.14551251E+03  d E =-.418536E-03
       N       E                     dE             d eps       ncg     rms          rms(c)
DAV:   1    -0.145514780309E+03    0.61643E-04   -0.17722E-01  2812   0.183E+00    0.637E-02
DAV:   2    -0.145515157470E+03   -0.37716E-03   -0.48668E-03  3124   0.285E-01    0.392E-02
DAV:   3    -0.145515119928E+03    0.37542E-04   -0.14249E-04  3232   0.651E-02    0.322E-02
DAV:   4    -0.145515085412E+03    0.34515E-04   -0.74128E-05  3004   0.499E-02    0.151E-02
DAV:   5    -0.145515053412E+03    0.32000E-04   -0.31884E-05  2794   0.644E-02    0.108E-02
DAV:   6    -0.145515034124E+03    0.19287E-04   -0.32028E-05  2626   0.651E-02    0.994E-03
DAV:   7    -0.145515025909E+03    0.82154E-05   -0.56528E-05  2774   0.545E-02
   7 F= -.14551503E+03 E0= -.14551268E+03  d E =-.607448E-03
       N       E                     dE             d eps       ncg     rms          rms(c)
DAV:   1    -0.145515218196E+03   -0.18407E-03   -0.67459E-02  2808   0.111E+00    0.339E-02
DAV:   2    -0.145515345677E+03   -0.12748E-03   -0.14599E-03  3090   0.151E-01    0.190E-02
DAV:   3    -0.145515335146E+03    0.10531E-04   -0.13215E-05  2174   0.235E-02    0.131E-02
DAV:   4    -0.145515323071E+03    0.12075E-04   -0.38842E-05  2704   0.505E-02    0.692E-03
DAV:   5    -0.145515323922E+03   -0.85085E-06   -0.23364E-05  2150   0.200E-02    0.886E-03
DAV:   6    -0.145515323778E+03    0.14444E-06   -0.17680E-06  1502   0.520E-03
   8 F= -.14551532E+03 E0= -.14551295E+03  d E =-.297869E-03
       N       E                     dE             d eps       ncg     rms          rms(c)
DAV:   1    -0.145514845826E+03    0.47810E-03   -0.60808E-01  2796   0.333E+00    0.103E-01
DAV:   2    -0.145516048815E+03   -0.12030E-02   -0.13409E-02  3086   0.459E-01    0.558E-02
DAV:   3    -0.145515982889E+03    0.65926E-04   -0.15790E-04  3228   0.653E-02    0.404E-02
DAV:   4    -0.145515938621E+03    0.44268E-04   -0.26826E-04  3244   0.967E-02    0.171E-02
DAV:   5    -0.145515943629E+03   -0.50085E-05   -0.95240E-05  2918   0.420E-02    0.217E-02
DAV:   6    -0.145515936953E+03    0.66764E-05   -0.17844E-05  1808   0.215E-02
   9 F= -.14551594E+03 E0= -.14551349E+03  d E =-.911044E-03
       N       E                     dE             d eps       ncg     rms          rms(c)
DAV:   1    -0.145511319780E+03    0.46238E-02   -0.24338E+00  2796   0.666E+00    0.200E-01
DAV:   2    -0.145516155457E+03   -0.48357E-02   -0.53419E-02  3070   0.915E-01    0.116E-01
DAV:   3    -0.145515872972E+03    0.28249E-03   -0.55358E-04  3236   0.128E-01    0.825E-02
DAV:   4    -0.145515694153E+03    0.17882E-03   -0.13545E-03  3282   0.219E-01    0.366E-02
DAV:   5    -0.145515716043E+03   -0.21890E-04   -0.42095E-04  3076   0.856E-02    0.439E-02
DAV:   6    -0.145515696559E+03    0.19484E-04   -0.58132E-05  2712   0.332E-02    0.265E-02
DAV:   7    -0.145515685541E+03    0.11018E-04   -0.83436E-05  3026   0.434E-02    0.803E-03
DAV:   8    -0.145515685643E+03   -0.10168E-06   -0.17017E-05  1854   0.253E-02
  10 F= -.14551569E+03 E0= -.14551311E+03  d E =-.659734E-03
       N       E                     dE             d eps       ncg     rms          rms(c)
DAV:   1    -0.145514280864E+03    0.14047E-02   -0.10133E+00  2796   0.430E+00    0.130E-01
DAV:   2    -0.145516259662E+03   -0.19788E-02   -0.22069E-02  3044   0.588E-01    0.735E-02
DAV:   3    -0.145516145563E+03    0.11410E-03   -0.24748E-04  3252   0.834E-02    0.531E-02
DAV:   4    -0.145516070380E+03    0.75183E-04   -0.48405E-04  3322   0.132E-01    0.217E-02
DAV:   5    -0.145516080506E+03   -0.10126E-04   -0.16544E-04  3018   0.520E-02    0.271E-02
DAV:   6    -0.145516069877E+03    0.10630E-04   -0.42464E-05  2440   0.296E-02    0.109E-02
DAV:   7    -0.145516069212E+03    0.66473E-06   -0.24207E-05  2018   0.226E-02
  11 F= -.14551607E+03 E0= -.14551357E+03  d E =-.104330E-02
       N       E                     dE             d eps       ncg     rms          rms(c)
DAV:   1    -0.145516286612E+03   -0.21674E-03   -0.22382E-01  2916   0.203E+00    0.606E-02
DAV:   2    -0.145516736209E+03   -0.44960E-03   -0.49864E-03  3174   0.282E-01    0.354E-02
DAV:   3    -0.145516702825E+03    0.33384E-04   -0.62765E-05  3116   0.444E-02    0.245E-02
DAV:   4    -0.145516669225E+03    0.33600E-04   -0.57241E-05  2984   0.573E-02    0.955E-03
DAV:   5    -0.145516662873E+03    0.63515E-05   -0.46363E-05  2890   0.439E-02    0.102E-02
DAV:   6    -0.145516662067E+03    0.80625E-06   -0.18387E-05  1822   0.188E-02
  12 F= -.14551666E+03 E0= -.14551411E+03  d E =-.592855E-03
       N       E                     dE             d eps       ncg     rms          rms(c)
DAV:   1    -0.145515874749E+03    0.78812E-03   -0.61951E-01  2884   0.338E+00    0.103E-01
DAV:   2    -0.145517101034E+03   -0.12263E-02   -0.13849E-02  3174   0.475E-01    0.584E-02
DAV:   3    -0.145516997650E+03    0.10338E-03   -0.21276E-04  3326   0.870E-02    0.412E-02
DAV:   4    -0.145516887688E+03    0.10996E-03   -0.12654E-04  3324   0.938E-02    0.189E-02
DAV:   5    -0.145516827690E+03    0.59998E-04   -0.11035E-04  3226   0.101E-01    0.151E-02
DAV:   6    -0.145516803046E+03    0.24644E-04   -0.11159E-04  2938   0.739E-02    0.998E-03
DAV:   7    -0.145516776350E+03    0.26696E-04   -0.20629E-05  2214   0.521E-02    0.824E-03
DAV:   8    -0.145516731000E+03    0.45350E-04   -0.23757E-05  2340   0.898E-02    0.104E-02
DAV:   9    -0.145516703097E+03    0.27903E-04   -0.28247E-05  2544   0.642E-02    0.902E-03
DAV:  10    -0.145516642634E+03    0.60463E-04   -0.10735E-04  3706   0.196E-01    0.121E-02
DAV:  11    -0.145516643929E+03   -0.12949E-05   -0.12217E-04  2872   0.568E-02    0.170E-02
DAV:  12    -0.145516643238E+03    0.69128E-06   -0.34802E-05  2560   0.333E-02
  13 F= -.14551664E+03 E0= -.14551401E+03  d E =-.574026E-03
       N       E                     dE             d eps       ncg     rms          rms(c)
DAV:   1    -0.145516593236E+03    0.50694E-04   -0.10784E-01  2952   0.141E+00    0.441E-02
DAV:   2    -0.145516812664E+03   -0.21943E-03   -0.24483E-03  3184   0.194E-01    0.237E-02
DAV:   3    -0.145516794737E+03    0.17927E-04   -0.22857E-05  2310   0.276E-02    0.153E-02
DAV:   4    -0.145516777059E+03    0.17678E-04   -0.32187E-05  2812   0.452E-02    0.483E-03
DAV:   5    -0.145516775939E+03    0.11197E-05   -0.25081E-05  2278   0.260E-02    0.569E-03
DAV:   6    -0.145516775165E+03    0.77396E-06   -0.51025E-06  1658   0.106E-02
  14 F= -.14551678E+03 E0= -.14551418E+03  d E =-.705953E-03
       N       E                     dE             d eps       ncg     rms          rms(c)
DAV:   1    -0.145516929251E+03   -0.15331E-03   -0.14149E-01  2788   0.164E+00    0.482E-02
DAV:   2    -0.145517223010E+03   -0.29376E-03   -0.32828E-03  3108   0.228E-01    0.287E-02
DAV:   3    -0.145517206603E+03    0.16407E-04   -0.41642E-05  2980   0.313E-02    0.203E-02
DAV:   4    -0.145517193418E+03    0.13185E-04   -0.37651E-05  2750   0.296E-02    0.820E-03
DAV:   5    -0.145517190961E+03    0.24566E-05   -0.97137E-06  1746   0.216E-02    0.640E-03
DAV:   6    -0.145517188728E+03    0.22334E-05   -0.10056E-05  1922   0.272E-02
  15 F= -.14551719E+03 E0= -.14551455E+03  d E =-.413563E-03
       N       E                     dE             d eps       ncg     rms          rms(c)
DAV:   1    -0.145516443267E+03    0.74769E-03   -0.55593E-01  2788   0.325E+00    0.992E-02
DAV:   2    -0.145517617863E+03   -0.11746E-02   -0.12980E-02  3134   0.451E-01    0.551E-02
DAV:   3    -0.145517556529E+03    0.61334E-04   -0.13990E-04  3292   0.577E-02    0.380E-02
DAV:   4    -0.145517512341E+03    0.44188E-04   -0.16699E-04  3070   0.638E-02    0.147E-02
DAV:   5    -0.145517509425E+03    0.29163E-05   -0.44598E-05  2740   0.361E-02    0.130E-02
DAV:   6    -0.145517503807E+03    0.56180E-05   -0.31838E-05  2490   0.394E-02
  16 F= -.14551750E+03 E0= -.14551478E+03  d E =-.728642E-03
       N       E                     dE             d eps       ncg     rms          rms(c)
DAV:   1    -0.145517951785E+03   -0.44236E-03   -0.96320E-02  2788   0.136E+00    0.481E-02
DAV:   2    -0.145518136916E+03   -0.18513E-03   -0.25347E-03  3144   0.212E-01    0.291E-02
DAV:   3    -0.145518117723E+03    0.19193E-04   -0.99691E-05  3174   0.509E-02    0.236E-02
DAV:   4    -0.145518098117E+03    0.19606E-04   -0.34067E-05  2608   0.300E-02    0.118E-02
DAV:   5    -0.145518071126E+03    0.26992E-04   -0.18038E-05  2106   0.510E-02    0.910E-03
DAV:   6    -0.145518051142E+03    0.19984E-04   -0.17853E-05  2172   0.558E-02    0.103E-02
DAV:   7    -0.145518033684E+03    0.17458E-04   -0.28008E-05  2510   0.583E-02    0.606E-03
DAV:   8    -0.145518006781E+03    0.26903E-04   -0.11896E-05  2084   0.833E-02    0.536E-03
DAV:   9    -0.145517982571E+03    0.24210E-04   -0.43784E-05  2904   0.970E-02    0.982E-03
DAV:  10    -0.145517974715E+03    0.78563E-05   -0.42171E-05  2706   0.578E-02
  17 F= -.14551797E+03 E0= -.14551524E+03  d E =-.470908E-03
       N       E                     dE             d eps       ncg     rms          rms(c)
DAV:   1    -0.145518011898E+03   -0.29327E-04   -0.25098E-02  2828   0.692E-01    0.248E-02
DAV:   2    -0.145518060497E+03   -0.48599E-04   -0.68210E-04  3144   0.111E-01    0.148E-02
DAV:   3    -0.145518055527E+03    0.49708E-05   -0.25014E-05  2242   0.234E-02    0.121E-02
DAV:   4    -0.145518049201E+03    0.63261E-05   -0.99215E-06  1746   0.160E-02    0.533E-03
DAV:   5    -0.145518042638E+03    0.65624E-05   -0.81869E-06  1854   0.251E-02    0.622E-03
DAV:   6    -0.145518036203E+03    0.64353E-05   -0.45228E-06  1842   0.327E-02
  18 F= -.14551804E+03 E0= -.14551529E+03  d E =-.532396E-03
       N       E                     dE             d eps       ncg     rms          rms(c)
DAV:   1    -0.145518030786E+03    0.11852E-04   -0.23241E-01  2860   0.204E+00    0.625E-02
DAV:   2    -0.145518506250E+03   -0.47546E-03   -0.53051E-03  3082   0.284E-01    0.380E-02
DAV:   3    -0.145518471627E+03    0.34624E-04   -0.53288E-05  3020   0.415E-02    0.269E-02
DAV:   4    -0.145518445542E+03    0.26085E-04   -0.15351E-04  3118   0.778E-02    0.120E-02
DAV:   5    -0.145518447646E+03   -0.21045E-05   -0.59062E-05  2778   0.324E-02    0.142E-02
DAV:   6    -0.145518446971E+03    0.67564E-06   -0.28814E-06  1534   0.715E-03
  19 F= -.14551845E+03 E0= -.14551569E+03  d E =-.410768E-03
       N       E                     dE             d eps       ncg     rms          rms(c)
DAV:   1    -0.145518258175E+03    0.18947E-03   -0.17640E-01  2860   0.178E+00    0.567E-02
DAV:   2    -0.145518603406E+03   -0.34523E-03   -0.40472E-03  3086   0.251E-01    0.331E-02
DAV:   3    -0.145518572706E+03    0.30700E-04   -0.53377E-05  3024   0.441E-02    0.242E-02
DAV:   4    -0.145518542313E+03    0.30393E-04   -0.75414E-05  2928   0.657E-02    0.101E-02
DAV:   5    -0.145518535246E+03    0.70667E-05   -0.52431E-05  2854   0.451E-02    0.116E-02
DAV:   6    -0.145518531874E+03    0.33720E-05   -0.16186E-05  1798   0.193E-02
  20 F= -.14551853E+03 E0= -.14551576E+03  d E =-.495672E-03
       N       E                     dE             d eps       ncg     rms          rms(c)
DAV:   1    -0.145518459854E+03    0.75393E-04   -0.17949E-01  2940   0.180E+00    0.535E-02
DAV:   2    -0.145518802714E+03   -0.34286E-03   -0.39972E-03  3154   0.253E-01    0.329E-02
DAV:   3    -0.145518762548E+03    0.40167E-04   -0.50446E-05  3084   0.451E-02    0.233E-02
DAV:   4    -0.145518705901E+03    0.56647E-04   -0.50934E-05  2758   0.686E-02    0.977E-03
DAV:   5    -0.145518678749E+03    0.27151E-04   -0.55666E-05  2996   0.582E-02    0.923E-03
DAV:   6    -0.145518670117E+03    0.86324E-05   -0.33784E-05  2450   0.293E-02
  21 F= -.14551867E+03 E0= -.14551588E+03  d E =-.138242E-03
       N       E                     dE             d eps       ncg     rms          rms(c)
DAV:   1    -0.145518627125E+03    0.51624E-04   -0.82871E-03  2944   0.391E-01    0.131E-02
DAV:   2    -0.145518626203E+03    0.92190E-06   -0.19637E-04  3158   0.687E-02    0.851E-03
DAV:   3    -0.145518614109E+03    0.12094E-04   -0.19887E-05  2130   0.278E-02    0.732E-03
DAV:   4    -0.145518600334E+03    0.13775E-04   -0.17870E-06  1806   0.195E-02    0.549E-03
DAV:   5    -0.145518522195E+03    0.78138E-04   -0.56610E-05  3082   0.131E-01    0.124E-02
DAV:   6    -0.145518507961E+03    0.14234E-04   -0.45721E-05  2760   0.461E-02    0.129E-02
DAV:   7    -0.145518512470E+03   -0.45089E-05   -0.72248E-05  2632   0.302E-02
  22 F= -.14551851E+03 E0= -.14551572E+03  d E =0.194044E-04
       N       E                     dE             d eps       ncg     rms          rms(c)
DAV:   1    -0.145518432836E+03    0.75125E-04   -0.37527E-03  3146   0.343E-01    0.177E-02
DAV:   2    -0.145518498631E+03   -0.65795E-04   -0.74111E-04  3022   0.104E-01    0.244E-02
DAV:   3    -0.145518490164E+03    0.84668E-05   -0.15087E-05  1792   0.213E-02    0.185E-02
DAV:   4    -0.145518484496E+03    0.56683E-05   -0.34816E-05  2386   0.248E-02    0.481E-03
DAV:   5    -0.145518483841E+03    0.65500E-06   -0.44645E-06  1548   0.925E-03    0.317E-03
DAV:   6    -0.145518483435E+03    0.40543E-06   -0.16232E-06  1708   0.925E-03
  23 F= -.14551848E+03 E0= -.14551570E+03  d E =0.484391E-04
       N       E                     dE             d eps       ncg     rms          rms(c)
DAV:   1    -0.145518495062E+03   -0.11222E-04   -0.60440E-04  2812   0.105E-01    0.519E-03
DAV:   2    -0.145518496237E+03   -0.11746E-05   -0.17883E-05  1800   0.184E-02    0.190E-03
DAV:   3    -0.145518496266E+03   -0.29380E-07   -0.16973E-06  1456   0.542E-03    0.154E-03
DAV:   4    -0.145518496190E+03    0.76625E-07   -0.23420E-07  1452   0.208E-03    0.939E-04
DAV:   5    -0.145518496103E+03    0.86375E-07   -0.27563E-07  1484   0.288E-03    0.699E-04
DAV:   6    -0.145518496073E+03    0.30337E-07   -0.80888E-08  1442   0.189E-03
  24 F= -.14551850E+03 E0= -.14551571E+03  d E =0.358015E-04
       N       E                     dE             d eps       ncg     rms          rms(c)
DAV:   1    -0.145518499021E+03   -0.29179E-05   -0.33911E-05  2408   0.250E-02    0.110E-03
DAV:   2    -0.145518499101E+03   -0.79979E-07   -0.11094E-06  1434   0.455E-03    0.510E-04
DAV:   3    -0.145518499101E+03    0.42655E-09   -0.99823E-08  1428   0.138E-03    0.416E-04
DAV:   4    -0.145518499087E+03    0.13313E-07   -0.22426E-08  1428   0.856E-04    0.180E-04
DAV:   5    -0.145518499077E+03    0.10581E-07   -0.12485E-08  1428   0.110E-03    0.229E-04
DAV:   6    -0.145518499069E+03    0.78280E-08   -0.11030E-08  1414   0.106E-03
  25 F= -.14551850E+03 E0= -.14551571E+03  d E =0.328054E-04
       N       E                     dE             d eps       ncg     rms          rms(c)
DAV:   1    -0.145518499795E+03   -0.71818E-06   -0.19586E-06  1410   0.647E-03    0.343E-04
DAV:   2    -0.145518499809E+03   -0.14133E-07   -0.21317E-07  1410   0.211E-03    0.242E-04
DAV:   3    -0.145518499811E+03   -0.16844E-08   -0.21508E-08  1410   0.563E-04    0.217E-04
DAV:   4    -0.145518499810E+03    0.11796E-08   -0.49596E-09  1406   0.268E-04    0.988E-05
DAV:   5    -0.145518499808E+03    0.13033E-08   -0.10913E-08  1404   0.491E-04    0.203E-04
DAV:   6    -0.145518499808E+03    0.66029E-09   -0.20352E-09  1404   0.171E-04
  26 F= -.14551850E+03 E0= -.14551571E+03  d E =0.320667E-04
       N       E                     dE             d eps       ncg     rms          rms(c)
DAV:   1    -0.145518499994E+03   -0.18552E-06   -0.12369E-07  1398   0.153E-03    0.207E-04
DAV:   2    -0.145518499994E+03   -0.35834E-09   -0.11049E-08  1398   0.664E-04    0.752E-05
DAV:   3    -0.145518499993E+03    0.14143E-08   -0.79915E-09  1392   0.494E-04    0.864E-05
DAV:   4    -0.145518499993E+03    0.26375E-10   -0.20838E-09  1392   0.188E-04    0.746E-05
DAV:   5    -0.145518499993E+03   -0.58299E-09   -0.52207E-10  1392   0.916E-05    0.340E-05
DAV:   6    -0.145518499994E+03   -0.96225E-09   -0.15091E-08  1392   0.109E-03
  27 F= -.14551850E+03 E0= -.14551571E+03  d E =0.318801E-04
       N       E                     dE             d eps       ncg     rms          rms(c)
DAV:   1    -0.145518500038E+03   -0.44951E-07   -0.13476E-08  1392   0.770E-04    0.373E-04
DAV:   2    -0.145518500035E+03    0.29395E-08   -0.26691E-08  1392   0.788E-04    0.594E-05
DAV:   3    -0.145518500036E+03   -0.40018E-09   -0.41344E-09  1392   0.263E-04    0.425E-05
DAV:   4    -0.145518500036E+03    0.94587E-10   -0.40553E-10  1392   0.850E-05    0.212E-05
DAV:   5    -0.145518500036E+03   -0.14552E-10   -0.82935E-11  1392   0.497E-05    0.110E-05
DAV:   6    -0.145518500035E+03    0.11687E-08   -0.15982E-10  1392   0.155E-04
  28 F= -.14551850E+03 E0= -.14551571E+03  d E =0.318399E-04
       N       E                     dE             d eps       ncg     rms          rms(c)
DAV:   1    -0.145518500046E+03   -0.10636E-07   -0.70666E-10  1392   0.126E-04    0.284E-05
DAV:   2    -0.145518500046E+03    0.13642E-09   -0.20456E-10  1392   0.828E-05    0.906E-06
DAV:   3    -0.145518500046E+03   -0.16917E-09   -0.86690E-11  1392   0.509E-05    0.808E-06
DAV:   4    -0.145518500046E+03    0.14734E-09   -0.24197E-11  1392   0.263E-05    0.707E-06
DAV:   5    -0.145518500047E+03   -0.57116E-09   -0.43115E-11  1392   0.651E-05    0.119E-05
DAV:   6    -0.145518500046E+03    0.56571E-09   -0.65425E-11  1392   0.203E-04
  29 F= -.14551850E+03 E0= -.14551571E+03  d E =0.318282E-04
       N       E                     dE             d eps       ncg     rms          rms(c)
DAV:   1    -0.145518500049E+03   -0.27230E-08   -0.18860E-10  1392   0.504E-05    0.152E-05
DAV:   2    -0.145518500049E+03    0.11642E-09   -0.64170E-11  1392   0.386E-05    0.455E-06
DAV:   3    -0.145518500049E+03    0.36925E-09   -0.22711E-11  1392   0.202E-05    0.383E-06
DAV:   4    -0.145518500049E+03   -0.22646E-09   -0.75463E-12  1392   0.969E-06    0.268E-06
DAV:   5    -0.145518500049E+03    0.34652E-09   -0.64501E-12  1392   0.235E-05    0.332E-06
DAV:   6    -0.145518500049E+03   -0.40018E-10   -0.95960E-12  1392   0.207E-05
  30 F= -.14551850E+03 E0= -.14551571E+03  d E =0.318255E-04
       N       E                     dE             d eps       ncg     rms          rms(c)
DAV:   1    -0.145518500050E+03   -0.10468E-08   -0.16706E-11  1392   0.301E-05    0.213E-06
DAV:   2    -0.145518500050E+03   -0.29831E-09   -0.11074E-11  1390   0.125E-05    0.318E-06
DAV:   3    -0.145518500050E+03    0.65029E-09   -0.83808E-12  1386   0.427E-06    0.317E-06
DAV:   4    -0.145518500050E+03   -0.49658E-09   -0.38610E-12  1386   0.218E-06    0.283E-06
DAV:   5    -0.145518500049E+03    0.62755E-09   -0.32233E-11  1386   0.188E-05    0.136E-05
DAV:   6    -0.145518500050E+03   -0.20736E-09   -0.14980E-11  1386   0.210E-05
  31 F= -.14551850E+03 E0= -.14551571E+03  d E =0.318248E-04
       N       E                     dE             d eps       ncg     rms          rms(c)
DAV:   1    -0.145518500050E+03   -0.72941E-09   -0.95615E-12  1386   0.786E-06    0.145E-05
DAV:   2    -0.145518500050E+03    0.36471E-09   -0.22262E-11  1386   0.274E-05    0.371E-06
DAV:   3    -0.145518500051E+03   -0.70850E-09   -0.21896E-11  1386   0.185E-05    0.337E-06
DAV:   4    -0.145518500050E+03    0.98498E-09   -0.69428E-12  1386   0.584E-06    0.225E-06
DAV:   5    -0.145518500050E+03   -0.72760E-09   -0.85476E-12  1386   0.660E-06    0.241E-06
DAV:   6    -0.145518500050E+03    0.58208E-10   -0.33669E-12  1386   0.800E-06
  32 F= -.14551850E+03 E0= -.14551571E+03  d E =0.318242E-04
       N       E                     dE             d eps       ncg     rms          rms(c)
DAV:   1    -0.145518500050E+03   -0.51841E-10   -0.26120E-12  1386   0.890E-06    0.165E-06
DAV:   2    -0.145518500050E+03   -0.27285E-11   -0.45948E-12  1386   0.563E-06    0.666E-07
DAV:   3    -0.145518500050E+03    0.26375E-10   -0.18091E-13  1386   0.211E-06    0.575E-07
DAV:   4    -0.145518500050E+03    0.45020E-09   -0.36830E-12  1386   0.250E-06    0.426E-07
DAV:   5    -0.145518500050E+03   -0.50659E-09   -0.26356E-12  1386   0.724E-06    0.114E-06
DAV:   6    -0.145518500050E+03   -0.67303E-10   -0.26717E-12  1386   0.680E-06
  33 F= -.14551850E+03 E0= -.14551571E+03  d E =0.318240E-04
       N       E                     dE             d eps       ncg     rms          rms(c)
DAV:   1    -0.145518500050E+03    0.33742E-09   -0.28644E-12  1386   0.147E-05    0.611E-07
DAV:   2    -0.145518500050E+03   -0.29104E-10   -0.90283E-12  1386   0.332E-06    0.124E-06
DAV:   3    -0.145518500050E+03   -0.62755E-10   -0.72866E-12  1386   0.135E-06    0.162E-06
DAV:   4    -0.145518500050E+03   -0.12642E-09   -0.73380E-12  1386   0.145E-06    0.797E-07
DAV:   5    -0.145518500050E+03    0.55388E-09   -0.84163E-12  1386   0.188E-06    0.499E-07
DAV:   6    -0.145518500050E+03   -0.67212E-09   -0.26794E-12  1386   0.533E-07
  34 F= -.14551850E+03 E0= -.14551571E+03  d E =0.318241E-04
       N       E                     dE             d eps       ncg     rms          rms(c)
DAV:   1    -0.145518262594E+03    0.23746E-03   -0.17986E-01  2940   0.181E+00    0.538E-02
DAV:   2    -0.145518622932E+03   -0.36034E-03   -0.40770E-03  3168   0.255E-01    0.329E-02
DAV:   3    -0.145518592061E+03    0.30871E-04   -0.52529E-05  3068   0.387E-02    0.236E-02
DAV:   4    -0.145518559114E+03    0.32947E-04   -0.58979E-05  2906   0.514E-02    0.930E-03
DAV:   5    -0.145518548967E+03    0.10147E-04   -0.34027E-05  2702   0.377E-02    0.897E-03
DAV:   6    -0.145518545659E+03    0.33076E-05   -0.14728E-05  1802   0.179E-02
  35 F= -.14551855E+03 E0= -.14551579E+03  d E =-.137848E-04
       N       E                     dE             d eps       ncg     rms          rms(c)
DAV:   1    -0.145518720838E+03   -0.17187E-03   -0.26795E-02  2928   0.691E-01    0.226E-02
DAV:   2    -0.145518759936E+03   -0.39098E-04   -0.64824E-04  3184   0.109E-01    0.166E-02
DAV:   3    -0.145518750461E+03    0.94743E-05   -0.28173E-05  2490   0.281E-02    0.132E-02
DAV:   4    -0.145518739843E+03    0.10619E-04   -0.10879E-05  1796   0.207E-02    0.676E-03
DAV:   5    -0.145518725061E+03    0.14781E-04   -0.11745E-05  2052   0.392E-02    0.659E-03
DAV:   6    -0.145518711034E+03    0.14027E-04   -0.12787E-05  2114   0.555E-02    0.500E-03
DAV:   7    -0.145518696290E+03    0.14744E-04   -0.33030E-05  2734   0.898E-02    0.888E-03
DAV:   8    -0.145518690812E+03    0.54778E-05   -0.38204E-05  2626   0.479E-02
  36 F= -.14551869E+03 E0= -.14551592E+03  d E =-.145153E-03
       N       E                     dE             d eps       ncg     rms          rms(c)
DAV:   1    -0.145518703141E+03   -0.68507E-05   -0.11536E-02  2958   0.454E-01    0.158E-02
DAV:   2    -0.145518723836E+03   -0.20695E-04   -0.29067E-04  3180   0.719E-02    0.977E-03
DAV:   3    -0.145518721042E+03    0.27942E-05   -0.95599E-06  1766   0.159E-02    0.747E-03
DAV:   4    -0.145518718098E+03    0.29446E-05   -0.39557E-06  1780   0.123E-02    0.349E-03
DAV:   5    -0.145518715611E+03    0.24870E-05   -0.32508E-06  1820   0.166E-02    0.293E-03
DAV:   6    -0.145518713532E+03    0.20782E-05   -0.26254E-06  1764   0.219E-02
  37 F= -.14551871E+03 E0= -.14551593E+03  d E =-.167873E-03
       N       E                     dE             d eps       ncg     rms          rms(c)
DAV:   1    -0.145518751782E+03   -0.36171E-04   -0.42284E-03  2976   0.272E-01    0.953E-03
DAV:   2    -0.145518758581E+03   -0.67984E-05   -0.10495E-04  2920   0.427E-02    0.743E-03
DAV:   3    -0.145518756898E+03    0.16827E-05   -0.45186E-06  1664   0.109E-02    0.506E-03
DAV:   4    -0.145518755004E+03    0.18935E-05   -0.23824E-06  1620   0.805E-03    0.242E-03
DAV:   5    -0.145518753501E+03    0.15036E-05   -0.11510E-06  1704   0.890E-03    0.188E-03
DAV:   6    -0.145518750169E+03    0.33313E-05   -0.23746E-06  1860   0.263E-02
  38 F= -.14551875E+03 E0= -.14551597E+03  d E =-.366370E-04
