 vasp.5.3.5 31Mar14 (build Apr 08 2024 10:12:10) complex                        
  
 executed on             LinuxIFC date 2024.07.29  17:53:29
 running on    8 total cores
 distrk:  each k-point on    8 cores,    1 groups
 distr:  one band on NCORES_PER_BAND=   4 cores,    2 groups


--------------------------------------------------------------------------------------------------------


 INCAR:
 POTCAR:    PAW_PBE O 08Apr2002                   
 POTCAR:    PAW_PBE Mg 13Apr2007                  
 POTCAR:    PAW_PBE Al 04Jan2001                  
 POTCAR:    PAW_PBE O 08Apr2002                   
   VRHFIN =O: s2p4                                                              
   LEXCH  = PE                                                                  
   EATOM  =   432.3788 eV,   31.7789 Ry                                         
                                                                                
   TITEL  = PAW_PBE O 08Apr2002                                                 
   LULTRA =        F    use ultrasoft PP ?                                      
   IUNSCR =        1    unscreen: 0-lin 1-nonlin 2-no                           
   RPACOR =    1.200    partial core radius                                     
   POMASS =   16.000; ZVAL   =    6.000    mass and valenz                      
   RCORE  =    1.520    outmost cutoff radius                                   
   RWIGS  =    1.550; RWIGS  =    0.820    wigner-seitz radius (au A)           
   ENMAX  =  400.000; ENMIN  =  300.000 eV                                      
   ICORE  =        2    local potential                                         
   LCOR   =        T    correct aug charges                                     
   LPAW   =        T    paw PP                                                  
   EAUG   =  605.392                                                            
   DEXC   =    0.000                                                            
   RMAX   =    1.553    core radius for proj-oper                               
   RAUG   =    1.300    factor for augmentation sphere                          
   RDEP   =    1.550    radius for radial grids                                 
   RDEPT  =    1.329    core radius for aug-charge                              
                                                                                
   Atomic configuration                                                         
    4 entries                                                                   
     n  l   j            E        occ.                                          
     1  0  0.50      -514.6923   2.0000                                         
     2  0  0.50       -23.9615   2.0000                                         
     2  1  0.50        -9.0305   4.0000                                         
     3  2  1.50        -9.5241   0.0000                                         
   Description                                                                  
     l       E           TYP  RCUT    TYP  RCUT                                 
     0    -23.9615318     23  1.200                                             
     0     -9.5240782     23  1.200                                             
     1     -9.0304911     23  1.520                                             
     1      8.1634956     23  1.520                                             
     2     -9.5240782      7  1.500                                             
  local pseudopotential read in
  partial core-charges read in
  partial kinetic energy density read in
  kinetic energy density of atom read in
  atomic valenz-charges read in
  non local Contribution for L=           0  read in
    real space projection operators read in
  non local Contribution for L=           0  read in
    real space projection operators read in
  non local Contribution for L=           1  read in
    real space projection operators read in
  non local Contribution for L=           1  read in
    real space projection operators read in
    PAW grid and wavefunctions read in
 
   number of l-projection  operators is LMAX  =           4
   number of lm-projection operators is LMMAX =           8
 
 POTCAR:    PAW_PBE Mg 13Apr2007                  
   VRHFIN =Mg: s2p0                                                             
   LEXCH  = PE                                                                  
   EATOM  =    23.0369 eV,    1.6932 Ry                                         
                                                                                
   TITEL  = PAW_PBE Mg 13Apr2007                                                
   LULTRA =        F    use ultrasoft PP ?                                      
   IUNSCR =        1    unscreen: 0-lin 1-nonlin 2-no                           
   RPACOR =    1.500    partial core radius                                     
   POMASS =   24.305; ZVAL   =    2.000    mass and valenz                      
   RCORE  =    2.000    outmost cutoff radius                                   
   RWIGS  =    2.880; RWIGS  =    1.524    wigner-seitz radius (au A)           
   ENMAX  =  200.000; ENMIN  =  100.000 eV                                      
   RCLOC  =    1.506    cutoff for local pot                                    
   LCOR   =        T    correct aug charges                                     
   LPAW   =        T    paw PP                                                  
   EAUG   =  454.734                                                            
   DEXC   =    0.000                                                            
   RMAX   =    2.045    core radius for proj-oper                               
   RAUG   =    1.300    factor for augmentation sphere                          
   RDEP   =    2.025    radius for radial grids                                 
   RDEPT  =    1.942    core radius for aug-charge                              
                                                                                
   Atomic configuration                                                         
    6 entries                                                                   
     n  l   j            E        occ.                                          
     1  0  0.50     -1259.6230   2.0000                                         
     2  0  0.50       -79.8442   2.0000                                         
     2  1  1.50       -46.6121   6.0000                                         
     3  0  0.50        -4.7055   2.0000                                         
     3  1  0.50        -1.3660   0.0000                                         
     3  2  1.50        -1.3606   0.0000                                         
   Description                                                                  
     l       E           TYP  RCUT    TYP  RCUT                                 
     0     -4.7054661     23  2.000                                             
     0     27.2116520     23  2.000                                             
     1      1.3605826     23  2.000                                             
     1     27.2116520     23  2.000                                             
     2     -1.3605826     23  2.000                                             
  local pseudopotential read in
  partial core-charges read in
  partial kinetic energy density read in
  atomic valenz-charges read in
  non local Contribution for L=           0  read in
    real space projection operators read in
  non local Contribution for L=           0  read in
    real space projection operators read in
  non local Contribution for L=           1  read in
    real space projection operators read in
  non local Contribution for L=           1  read in
    real space projection operators read in
  non local Contribution for L=           2  read in
    real space projection operators read in
    PAW grid and wavefunctions read in
 
   number of l-projection  operators is LMAX  =           5
   number of lm-projection operators is LMMAX =          13
 
 POTCAR:    PAW_PBE Al 04Jan2001                  
   VRHFIN =Al: s2p1                                                             
   LEXCH  = PE                                                                  
   EATOM  =    53.5387 eV,    3.9350 Ry                                         
                                                                                
   TITEL  = PAW_PBE Al 04Jan2001                                                
   LULTRA =        F    use ultrasoft PP ?                                      
   IUNSCR =        1    unscreen: 0-lin 1-nonlin 2-no                           
   RPACOR =    1.500    partial core radius                                     
   POMASS =   26.981; ZVAL   =    3.000    mass and valenz                      
   RCORE  =    1.900    outmost cutoff radius                                   
   RWIGS  =    2.650; RWIGS  =    1.402    wigner-seitz radius (au A)           
   ENMAX  =  240.300; ENMIN  =  180.225 eV                                      
   ICORE  =        2    local potential                                         
   LCOR   =        T    correct aug charges                                     
   LPAW   =        T    paw PP                                                  
   EAUG   =  291.052                                                            
   DEXC   =    0.000                                                            
   RMAX   =    1.939    core radius for proj-oper                               
   RAUG   =    1.300    factor for augmentation sphere                          
   RDEP   =    1.966    radius for radial grids                                 
   RDEPT  =    1.856    core radius for aug-charge                              
                                                                                
   Atomic configuration                                                         
    6 entries                                                                   
     n  l   j            E        occ.                                          
     1  0  0.50     -1511.1048   2.0000                                         
     2  0  0.50      -108.1629   2.0000                                         
     2  1  1.50       -69.6402   6.0000                                         
     3  0  0.50        -7.7528   2.0000                                         
     3  1  1.50        -2.7121   1.0000                                         
     3  2  2.50        -2.7212   0.0000                                         
   Description                                                                  
     l       E           TYP  RCUT    TYP  RCUT                                 
     0     -7.7528455     23  1.900                                             
     0     -3.3096929     23  1.900                                             
     1     -2.7120682     23  1.900                                             
     1     13.6058260     23  1.900                                             
     2     -2.7211652      7  1.900                                             
  local pseudopotential read in
  partial core-charges read in
  partial kinetic energy density read in
  atomic valenz-charges read in
  non local Contribution for L=           0  read in
    real space projection operators read in
  non local Contribution for L=           0  read in
    real space projection operators read in
  non local Contribution for L=           1  read in
    real space projection operators read in
  non local Contribution for L=           1  read in
    real space projection operators read in
    PAW grid and wavefunctions read in
 
   number of l-projection  operators is LMAX  =           4
   number of lm-projection operators is LMMAX =           8
 

 ----------------------------------------------------------------------------- 
|                                                                             |
|  ADVICE TO THIS USER RUNNING 'VASP/VAMP'   (HEAR YOUR MASTER'S VOICE ...):  |
|                                                                             |
|      You have a (more or less) 'large supercell' and for larger cells       |
|      it might be more efficient to use real space projection opertators     |
|      So try LREAL= Auto  in the INCAR   file.                               |
|      Mind: At the moment your POTCAR file does not contain real space       |
|       projectors, and has to be modified,  BUT if you                       |
|      want to do an extremely  accurate calculation you might also keep the  |
|      reciprocal projection scheme          (i.e. LREAL=.FALSE.)             |
|                                                                             |
 ----------------------------------------------------------------------------- 

  PAW_PBE O 08Apr2002                   :
 energy of atom  1       EATOM= -432.3788
 kinetic energy error for atom=    0.0208 (will be added to EATOM!!)
  PAW_PBE Mg 13Apr2007                  :
 energy of atom  2       EATOM=  -23.0369
 kinetic energy error for atom=    0.0000 (will be added to EATOM!!)
  PAW_PBE Al 04Jan2001                  :
 energy of atom  3       EATOM=  -53.5387
 kinetic energy error for atom=    0.0002 (will be added to EATOM!!)
 
 
 POSCAR: Layer                                   
  positions in direct lattice
  velocities in cartesian coordinates
 exchange correlation table for  LEXCH =        8
   RHO(1)=    0.500       N(1)  =     2000
   RHO(2)=  100.500       N(2)  =     4000
 


--------------------------------------------------------------------------------------------------------


 ion  position               nearest neighbor table
   1  0.000  0.000  0.270-  14 2.14  14 2.14  14 2.14  18 2.17  18 2.17  18 2.17
   2  0.333  0.667  0.326-  11 2.14  11 2.14  11 2.14  14 2.14  14 2.14  14 2.14
   3  0.000  0.000  0.439-  19 2.14  19 2.14  19 2.14  15 2.14  15 2.14  15 2.14
   4  0.333  0.667  0.496-  15 2.14  15 2.14  15 2.14  12 2.14  12 2.14  12 2.14
   5  0.000  0.000  0.609-  16 2.14  16 2.14  16 2.14  20 2.14  20 2.14  20 2.14
   6  0.333  0.667  0.666-  16 2.14  16 2.14  16 2.14  13 2.14  13 2.14  13 2.14
   7  0.000  0.000  0.779-  21 2.14  21 2.14  21 2.14  17 2.17  17 2.17  17 2.17
   8  0.667  0.333  0.383-  19 2.14  19 2.14  19 2.14  11 2.14  11 2.14  11 2.14
   9  0.667  0.333  0.553-  20 2.14  20 2.14  20 2.14  12 2.14  12 2.14  12 2.14
  10  0.667  0.333  0.722-  13 2.14  13 2.14  13 2.14  21 2.14  21 2.14  21 2.14
  11  0.000  0.000  0.355-   8 2.14   8 2.14   8 2.14   2 2.14   2 2.14   2 2.14  19 3.06  19 3.06
                            19 3.06  14 3.06  14 3.06  14 3.06
  12  0.000  0.000  0.524-   4 2.14   4 2.14   4 2.14   9 2.14   9 2.14   9 2.14  20 3.06  20 3.06
                            20 3.06  15 3.06  15 3.06  15 3.06
  13  0.000  0.000  0.694-   6 2.14   6 2.14   6 2.14  10 2.14  10 2.14  10 2.14  16 3.06  16 3.06
                            16 3.06  21 3.06  21 3.06  21 3.06
  14  0.667  0.333  0.298-   1 2.14   1 2.14   1 2.14   2 2.14   2 2.14   2 2.14  11 3.06  11 3.06
                            11 3.06  18 3.09  18 3.09  18 3.09
  15  0.667  0.333  0.468-   3 2.14   3 2.14   3 2.14   4 2.14   4 2.14   4 2.14  19 3.06  19 3.06
                            19 3.06  12 3.06  12 3.06  12 3.06
  16  0.667  0.333  0.638-   5 2.14   5 2.14   5 2.14   6 2.14   6 2.14   6 2.14  20 3.06  20 3.06
                            20 3.06  13 3.06  13 3.06  13 3.06
  17  0.667  0.333  0.808-   7 2.17   7 2.17   7 2.17  26 3.08  26 3.08  26 3.08  21 3.09  21 3.09
                            21 3.09
  18  0.333  0.667  0.240-   1 2.17   1 2.17   1 2.17  23 3.08  23 3.08  23 3.08  14 3.09  14 3.09
                            14 3.09
  19  0.333  0.667  0.411-   3 2.14   3 2.14   3 2.14   8 2.14   8 2.14   8 2.14  15 3.06  15 3.06
                            15 3.06  11 3.06  11 3.06  11 3.06
  20  0.333  0.667  0.581-   9 2.14   9 2.14   9 2.14   5 2.14   5 2.14   5 2.14  16 3.06  16 3.06
                            16 3.06  12 3.06  12 3.06  12 3.06
  21  0.333  0.667  0.751-   7 2.14   7 2.14   7 2.14  10 2.14  10 2.14  10 2.14  13 3.06  13 3.06
                            13 3.06  17 3.09  17 3.09  17 3.09
  22  0.000  0.000  0.024-  27 2.92  27 2.92  27 2.92  25 2.92  25 2.92  25 2.92
  23  0.000  0.000  0.183-  24 2.92  24 2.92  24 2.92  18 3.08  18 3.08  18 3.08
  24  0.667  0.333  0.130-  23 2.92  23 2.92  23 2.92  25 2.93  25 2.93  25 2.93
  25  0.333  0.667  0.077-  22 2.92  22 2.92  22 2.92  24 2.93  24 2.93  24 2.93
  26  0.000  0.000  0.866-  28 2.93  28 2.93  28 2.93  17 3.08  17 3.08  17 3.08
  27  0.667  0.333  0.972-  22 2.92  22 2.92  22 2.92  28 2.93  28 2.93  28 2.93
  28  0.333  0.667  0.919-  26 2.93  26 2.93  26 2.93  27 2.93  27 2.93  27 2.93
 
  LATTYP: Found a hexagonal cell.
 ALAT       =     2.9932160299
 C/A-ratio  =    14.8861888274
  
  Lattice vectors:
  
 A1 = (   2.5922013181,  -1.4966076735,   0.0000000000)
 A2 = (   0.0000000000,   2.9932153469,   0.0000000000)
 A3 = (  -0.0000000000,   0.0000000000,  44.5575790229)


Analysis of symmetry for initial positions (statically):
=====================================================================
 Subroutine PRICEL returns:
 Original cell was already a primitive cell.
 

 Routine SETGRP: Setting up the symmetry group for a 
 hexagonal supercell.


 Subroutine GETGRP returns: Found  6 space group operations
 (whereof  6 operations were pure point group operations)
 out of a pool of 24 trial point group operations.


The static configuration has the point symmetry C_3v.


Analysis of symmetry for dynamics (positions and initial velocities):
=====================================================================
 Subroutine PRICEL returns:
 Original cell was already a primitive cell.
 

 Routine SETGRP: Setting up the symmetry group for a 
 hexagonal supercell.


 Subroutine GETGRP returns: Found  6 space group operations
 (whereof  6 operations were pure point group operations)
 out of a pool of 24 trial point group operations.


The dynamic configuration has the point symmetry C_3v.


Analysis of constrained symmetry for selective dynamics:
=====================================================================
 Subroutine PRICEL returns:
 Original cell was already a primitive cell.
 

 Routine SETGRP: Setting up the symmetry group for a 
 hexagonal supercell.


 Subroutine GETGRP returns: Found  6 space group operations
 (whereof  6 operations were pure point group operations)
 out of a pool of 24 trial point group operations.


The constrained configuration has the point symmetry C_3v.
 
 
 KPOINTS: K-Spacing Value to Generate K-Mesh: 0.02

Automatic generation of k-mesh.
Space group operators:
 irot       det(A)        alpha          n_x          n_y          n_z        tau_x        tau_y        tau_z
    1     1.000000     0.000000     1.000000     0.000000     0.000000     0.000000     0.000000     0.000000
    2     1.000000   120.000000     0.000000     0.000000    -1.000000     0.000000     0.000000     0.000000
    3     1.000000   120.000000    -0.000000     0.000000     1.000000     0.000000     0.000000     0.000000
    4    -1.000000   180.000000    -0.866025     0.500000    -0.000000     0.000000     0.000000     0.000000
    5    -1.000000   180.000000     0.000000     1.000000     0.000000     0.000000     0.000000     0.000000
    6    -1.000000   180.000000    -0.866025    -0.500000    -0.000000     0.000000     0.000000     0.000000
 
 Subroutine IBZKPT returns following result:
 ===========================================
 
 Found     21 irreducible k-points:
 
 Following reciprocal coordinates:
            Coordinates               Weight
  0.000000  0.000000  0.000000      1.000000
  0.076923  0.000000 -0.000000      6.000000
  0.153846  0.000000  0.000000      6.000000
  0.230769  0.000000  0.000000      6.000000
  0.307692  0.000000  0.000000      6.000000
  0.384615  0.000000  0.000000      6.000000
  0.461538  0.000000  0.000000      6.000000
  0.076923  0.076923  0.000000      6.000000
  0.153846  0.076923  0.000000     12.000000
  0.230769  0.076923  0.000000     12.000000
  0.307692  0.076923 -0.000000     12.000000
  0.384615  0.076923 -0.000000     12.000000
  0.461538  0.076923 -0.000000      6.000000
  0.153846  0.153846 -0.000000      6.000000
  0.230769  0.153846  0.000000     12.000000
  0.307692  0.153846 -0.000000     12.000000
  0.384615  0.153846  0.000000     12.000000
  0.230769  0.230769  0.000000      6.000000
  0.307692  0.230769 -0.000000     12.000000
  0.384615  0.230769  0.000000      6.000000
  0.307692  0.307692  0.000000      6.000000
 
 Following cartesian coordinates:
            Coordinates               Weight
  0.000000  0.000000  0.000000      1.000000
  0.029675  0.000000  0.000000      6.000000
  0.059350  0.000000  0.000000      6.000000
  0.089024  0.000000  0.000000      6.000000
  0.118699  0.000000  0.000000      6.000000
  0.148374  0.000000  0.000000      6.000000
  0.178049  0.000000  0.000000      6.000000
  0.044512  0.025699  0.000000      6.000000
  0.074187  0.025699  0.000000     12.000000
  0.103862  0.025699  0.000000     12.000000
  0.133537  0.025699  0.000000     12.000000
  0.163211  0.025699  0.000000     12.000000
  0.192886  0.025699  0.000000      6.000000
  0.089024  0.051398  0.000000      6.000000
  0.118699  0.051398  0.000000     12.000000
  0.148374  0.051398  0.000000     12.000000
  0.178049  0.051398  0.000000     12.000000
  0.133537  0.077097  0.000000      6.000000
  0.163211  0.077097  0.000000     12.000000
  0.192886  0.077097  0.000000      6.000000
  0.178049  0.102797  0.000000      6.000000
 


--------------------------------------------------------------------------------------------------------




 Dimension of arrays:
   k-points           NKPTS =     21   k-points in BZ     NKDIM =     21   number of bands    NBANDS=     66
   number of dos      NEDOS =    301   number of ions     NIONS =     28
   non local maximal  LDIM  =      5   non local SUM 2l+1 LMDIM =     13
   total plane-waves  NPLWV = 193536
   max r-space proj   IRMAX =      1   max aug-charges    IRDMAX= 190419
   dimension x,y,z NGX =    24 NGY =   24 NGZ =  336
   dimension x,y,z NGXF=    48 NGYF=   48 NGZF=  672
   support grid    NGXF=    96 NGYF=   96 NGZF= 1344
   ions per type =              10  11   7
 NGX,Y,Z   is equivalent  to a cutoff of  13.33, 13.33, 12.54 a.u.
 NGXF,Y,Z  is equivalent  to a cutoff of  26.66, 26.66, 25.07 a.u.


 I would recommend the setting:
   dimension x,y,z NGX =    22 NGY =   22 NGZ =  331
 SYSTEM =  unknown system                          
 POSCAR =  Layer                                   

 Startparameter for this run:
   NWRITE =      2    write-flag & timer
   PREC   = accura    normal or accurate (medium, high low for compatibility)
   ISTART =      0    job   : 0-new  1-cont  2-samecut
   ICHARG =      2    charge: 1-file 2-atom 10-const
   ISPIN  =      1    spin polarized calculation?
   LNONCOLLINEAR =      F non collinear calculations
   LSORBIT =      F    spin-orbit coupling
   INIWAV =      1    electr: 0-lowe 1-rand  2-diag
   LASPH  =      F    aspherical Exc in radial PAW
   METAGGA=      F    non-selfconsistent MetaGGA calc.

 Electronic Relaxation 1
   ENCUT  =  520.0 eV  38.22 Ry    6.18 a.u.   5.57  5.57 82.85*2*pi/ulx,y,z
   ENINI  =  520.0     initial cutoff
   ENAUG  =  605.4 eV  augmentation charge cutoff
   NELM   =    100;   NELMIN=  6; NELMDL=  0     # of ELM steps 
   EDIFF  = 0.1E-04   stopping-criterion for ELM
   LREAL  =      F    real-space projection
   NLSPLINE    = F    spline interpolate recip. space projectors
   LCOMPAT=      F    compatible to vasp.4.4
   GGA_COMPAT  = T    GGA compatible to vasp.4.4-vasp.4.6
   LMAXPAW     = -100 max onsite density
   LMAXMIX     =    2 max onsite mixed and CHGCAR
   VOSKOWN=      0    Vosko Wilk Nusair interpolation
   ROPT   =    0.00000   0.00000   0.00000
 Ionic relaxation
   EDIFFG = -.2E-01   stopping-criterion for IOM
   NSW    =    500    number of steps for IOM
   NBLOCK =      1;   KBLOCK =    500    inner block; outer block 
   IBRION =      2    ionic relax: 0-MD 1-quasi-New 2-CG
   NFREE  =      1    steps in history (QN), initial steepest desc. (CG)
   ISIF   =      2    stress and relaxation
   IWAVPR =     11    prediction:  0-non 1-charg 2-wave 3-comb
   ISYM   =      2    0-nonsym 1-usesym 2-fastsym
   LCORR  =      T    Harris-Foulkes like correction to forces

   POTIM  = 0.5000    time-step for ionic-motion
   TEIN   =    0.0    initial temperature
   TEBEG  =    0.0;   TEEND  =   0.0 temperature during run
   SMASS  =  -3.00    Nose mass-parameter (am)
   estimated Nose-frequenzy (Omega)   =  0.10E-29 period in steps =****** mass=  -0.205E-27a.u.
   SCALEE = 1.0000    scale energy and forces
   NPACO  =    256;   APACO  = 16.0  distance and # of slots for P.C.
   PSTRESS=    0.0 pullay stress

  Mass of Ions in am
   POMASS =  16.00 24.30 26.98
  Ionic Valenz
   ZVAL   =   6.00  2.00  3.00
  Atomic Wigner-Seitz radii
   RWIGS  =  -1.00 -1.00 -1.00
  virtual crystal weights 
   VCA    =   1.00  1.00  1.00
   NELECT =     103.0000    total number of electrons
   NUPDOWN=      -1.0000    fix difference up-down

 DOS related values:
   EMIN   =  10.00;   EMAX   =-10.00  energy-range for DOS
   EFERMI =   0.00
   ISMEAR =     0;   SIGMA  =   0.05  broadening in eV -4-tet -1-fermi 0-gaus

 Electronic relaxation 2 (details)
   IALGO  =     38    algorithm
   LDIAG  =      T    sub-space diagonalisation (order eigenvalues)
   LSUBROT=      F    optimize rotation matrix (better conditioning)
   TURBO    =      0    0=normal 1=particle mesh
   IRESTART =      0    0=no restart 2=restart with 2 vectors
   NREBOOT  =      0    no. of reboots
   NMIN     =      0    reboot dimension
   EREF     =   0.00    reference energy to select bands
   IMIX   =      4    mixing-type and parameters
     AMIX     =   0.40;   BMIX     =  1.00
     AMIX_MAG =   1.60;   BMIX_MAG =  1.00
     AMIN     =   0.01
     WC   =   100.;   INIMIX=   1;  MIXPRE=   1;  MAXMIX= -45

 Intra band minimization:
   WEIMIN = 0.0010     energy-eigenvalue tresh-hold
   EBREAK =  0.38E-07  absolut break condition
   DEPER  =   0.30     relativ break condition  

   TIME   =   0.40     timestep for ELM

  volume/ion in A,a.u.               =      12.35        83.32
  Fermi-wavevector in a.u.,A,eV,Ry     =   1.093397  2.066220 16.265991  1.195517
  Thomas-Fermi vector in A             =   2.229681
 
 Write flags
   LWAVE  =      F    write WAVECAR
   LCHARG =      T    write CHGCAR
   LVTOT  =      F    write LOCPOT, total local potential
   LVHAR  =      F    write LOCPOT, Hartree potential only
   LELF   =      F    write electronic localiz. function (ELF)
   LORBIT =      0    0 simple, 1 ext, 2 COOP (PROOUT)


 Dipole corrections
   LMONO  =      F    monopole corrections only (constant potential shift)
   LDIPOL =      F    correct potential (dipole corrections)
   IDIPOL =      0    1-x, 2-y, 3-z, 4-all directions 
   EPSILON=  1.0000000 bulk dielectric constant

 Exchange correlation treatment:
   GGA     =    --    GGA type
   LEXCH   =     8    internal setting for exchange type
   VOSKOWN=      0    Vosko Wilk Nusair interpolation
   LHFCALC =     F    Hartree Fock is set to
   LHFONE  =     F    Hartree Fock one center treatment
   AEXX    =    0.0000 exact exchange contribution

 Linear response parameters
   LEPSILON=     F    determine dielectric tensor
   LRPA    =     F    only Hartree local field effects (RPA)
   LNABLA  =     F    use nabla operator in PAW spheres
   LVEL    =     F    velocity operator in full k-point grid
   LINTERFAST=   F  fast interpolation
   KINTER  =     0    interpolate to denser k-point grid
   CSHIFT  =0.1000    complex shift for real part using Kramers Kronig
   OMEGAMAX=  -1.0    maximum frequency
   DEG_THRESHOLD= 0.2000000E-02 threshold for treating states as degnerate
   RTIME   =    0.100 relaxation time in fs

 Orbital magnetization related:
   ORBITALMAG=     F  switch on orbital magnetization
   LCHIMAG   =     F  perturbation theory with respect to B field
   DQ        =  0.001000  dq finite difference perturbation B field



--------------------------------------------------------------------------------------------------------


 conjugate gradient relaxation of ions
   using selective dynamics as specified on POSCAR
 charge density and potential will be updated during run
 non-spin polarized calculation
 Variant of blocked Davidson
 Davidson routine will perform the subspace rotation
 perform sub-space diagonalisation
    after iterative eigenvector-optimisation
 modified Broyden-mixing scheme, WC =      100.0
 initial mixing is a Kerker type mixing with AMIX =  0.4000 and BMIX =      1.0000
 Hartree-type preconditioning will be used
 using additional bands           14
 reciprocal scheme for non local part
 use partial core corrections
 calculate Harris-corrections to forces 
   (improved forces if not selfconsistent)
 use gradient corrections 
 use of overlap-Matrix (Vanderbilt PP)
 Gauss-broadening in eV      SIGMA  =   0.05


--------------------------------------------------------------------------------------------------------


  energy-cutoff  :      520.00
  volume of cell :      345.72
      direct lattice vectors                 reciprocal lattice vectors
     2.592201318 -1.496607673  0.000000000     0.385772507  0.000000000  0.000000000
     0.000000000  2.993215347  0.000000000     0.192886253  0.334088892  0.000000000
    -0.000000000  0.000000000 44.557579023     0.000000000  0.000000000  0.022442871

  length of vectors
     2.993216030  2.993215347 44.557579023     0.385772507  0.385772595  0.022442871


 
 k-points in units of 2pi/SCALE and weight: K-Spacing Value to Generate K-Mesh: 0.02
   0.00000000  0.00000000  0.00000000       0.006
   0.02967481  0.00000000  0.00000000       0.036
   0.05934962  0.00000000  0.00000000       0.036
   0.08902442  0.00000000  0.00000000       0.036
   0.11869923  0.00000000  0.00000000       0.036
   0.14837404  0.00000000  0.00000000       0.036
   0.17804885  0.00000000  0.00000000       0.036
   0.04451221  0.02569915  0.00000000       0.036
   0.07418702  0.02569915  0.00000000       0.071
   0.10386183  0.02569915  0.00000000       0.071
   0.13353664  0.02569915  0.00000000       0.071
   0.16321145  0.02569915  0.00000000       0.071
   0.19288625  0.02569915  0.00000000       0.036
   0.08902442  0.05139829  0.00000000       0.036
   0.11869923  0.05139829  0.00000000       0.071
   0.14837404  0.05139829  0.00000000       0.071
   0.17804885  0.05139829  0.00000000       0.071
   0.13353664  0.07709744  0.00000000       0.036
   0.16321145  0.07709744  0.00000000       0.071
   0.19288625  0.07709744  0.00000000       0.036
   0.17804885  0.10279658  0.00000000       0.036
 
 k-points in reciprocal lattice and weights: K-Spacing Value to Generate K-Mesh: 0.02
   0.00000000  0.00000000  0.00000000       0.006
   0.07692308  0.00000000 -0.00000000       0.036
   0.15384615  0.00000000  0.00000000       0.036
   0.23076923  0.00000000  0.00000000       0.036
   0.30769231  0.00000000  0.00000000       0.036
   0.38461538  0.00000000  0.00000000       0.036
   0.46153846  0.00000000  0.00000000       0.036
   0.07692308  0.07692308  0.00000000       0.036
   0.15384615  0.07692308  0.00000000       0.071
   0.23076923  0.07692308  0.00000000       0.071
   0.30769231  0.07692308 -0.00000000       0.071
   0.38461538  0.07692308 -0.00000000       0.071
   0.46153846  0.07692308 -0.00000000       0.036
   0.15384615  0.15384615 -0.00000000       0.036
   0.23076923  0.15384615  0.00000000       0.071
   0.30769231  0.15384615 -0.00000000       0.071
   0.38461538  0.15384615  0.00000000       0.071
   0.23076923  0.23076923  0.00000000       0.036
   0.30769231  0.23076923 -0.00000000       0.071
   0.38461538  0.23076923  0.00000000       0.036
   0.30769231  0.30769231  0.00000000       0.036
 
 position of ions in fractional coordinates (direct lattice) 
   0.00000000  0.00000000  0.26960059
   0.33333300  0.66666700  0.32620775
   0.00000000  0.00000000  0.43940156
   0.33333300  0.66666700  0.49599543
   0.00000000  0.00000000  0.60924025
   0.33333300  0.66666700  0.66581417
   0.00000000  0.00000000  0.77903789
   0.66666700  0.33333300  0.38282647
   0.66666700  0.33333300  0.55264551
   0.66666700  0.33333300  0.72243108
   0.00000000  0.00000000  0.35452691
   0.00000000  0.00000000  0.52431959
   0.00000000  0.00000000  0.69411684
   0.66666700  0.33333300  0.29788737
   0.66666700  0.33333300  0.46769805
   0.66666700  0.33333300  0.63751824
   0.66666700  0.33333300  0.80831290
   0.33333300  0.66666700  0.24032183
   0.33333300  0.66666700  0.41112229
   0.33333300  0.66666700  0.58093991
   0.33333300  0.66666700  0.75075154
   0.00000000  0.00000000  0.02432412
   0.00000000  0.00000000  0.18310422
   0.66666700  0.33333300  0.13014203
   0.33333300  0.66666700  0.07708680
   0.00000000  0.00000000  0.86552968
   0.66666700  0.33333300  0.97156234
   0.33333300  0.66666700  0.91850564
 
 position of ions in cartesian coordinates  (Angst):
  -0.00000000  0.00000000 12.01274965
   0.86406624  1.49660917 14.53502739
  -0.00000000  0.00000000 19.57866966
   0.86406624  1.49660917 22.10035571
  -0.00000000  0.00000000 27.14627059
   0.86406624  1.49660917 29.66706739
  -0.00000000  0.00000000 34.71204238
   1.72813508 -0.00000150 17.05782064
   1.72813508 -0.00000150 24.62454611
   1.72813508 -0.00000150 32.18978011
  -0.00000000  0.00000000 15.79686059
  -0.00000000  0.00000000 23.36241167
  -0.00000000  0.00000000 30.92816580
   1.72813508 -0.00000150 13.27314012
   1.72813508 -0.00000150 20.83949286
   1.72813508 -0.00000150 28.40626924
   1.72813508 -0.00000150 36.01646583
   0.86406624  1.49660917 10.70815910
   0.86406624  1.49660917 18.31861390
   0.86406624  1.49660917 25.88527582
   0.86406624  1.49660917 33.45167096
  -0.00000000  0.00000000  1.08382375
  -0.00000000  0.00000000  8.15868085
   1.72813508 -0.00000150  5.79881398
   0.86406624  1.49660917  3.43480121
  -0.00000000  0.00000000 38.56590700
   1.72813508 -0.00000150 43.29046590
   0.86406624  1.49660917 40.92638774
 


--------------------------------------------------------------------------------------------------------


 k-point  1 :   0.0000 0.0000 0.0000  plane waves:    9441
 k-point  2 :   0.0769 0.0000-0.0000  plane waves:    9433
 k-point  3 :   0.1538 0.0000 0.0000  plane waves:    9393
 k-point  4 :   0.2308 0.0000 0.0000  plane waves:    9370
 k-point  5 :   0.3077 0.0000 0.0000  plane waves:    9318
 k-point  6 :   0.3846 0.0000 0.0000  plane waves:    9256
 k-point  7 :   0.4615 0.0000 0.0000  plane waves:    9258
 k-point  8 :   0.0769 0.0769 0.0000  plane waves:    9425
 k-point  9 :   0.1538 0.0769 0.0000  plane waves:    9384
 k-point 10 :   0.2308 0.0769 0.0000  plane waves:    9317
 k-point 11 :   0.3077 0.0769-0.0000  plane waves:    9304
 k-point 12 :   0.3846 0.0769-0.0000  plane waves:    9262
 k-point 13 :   0.4615 0.0769-0.0000  plane waves:    9224
 k-point 14 :   0.1538 0.1538-0.0000  plane waves:    9337
 k-point 15 :   0.2308 0.1538 0.0000  plane waves:    9304
 k-point 16 :   0.3077 0.1538-0.0000  plane waves:    9290
 k-point 17 :   0.3846 0.1538 0.0000  plane waves:    9248
 k-point 18 :   0.2308 0.2308 0.0000  plane waves:    9306
 k-point 19 :   0.3077 0.2308-0.0000  plane waves:    9251
 k-point 20 :   0.3846 0.2308 0.0000  plane waves:    9296
 k-point 21 :   0.3077 0.3077 0.0000  plane waves:    9304

 maximum and minimum number of plane-waves per node :      2386     2284

 maximum number of plane-waves:      9441
 maximum index in each direction: 
   IXMAX=    5   IYMAX=    5   IZMAX=   82
   IXMIN=   -6   IYMIN=   -5   IZMIN=  -82

 NGX is ok and might be reduce to  24
 NGY is ok and might be reduce to  22
 NGZ is ok and might be reduce to 330

 parallel 3D FFT for wavefunctions:
    minimum data exchange during FFTs selected (reduces bandwidth)
 parallel 3D FFT for charge:
    minimum data exchange during FFTs selected (reduces bandwidth)


 total amount of memory used by VASP on root node   154808. kBytes
========================================================================

   base      :      30000. kBytes
   nonl-proj :      16562. kBytes
   fftplans  :      57934. kBytes
   grid      :      23224. kBytes
   one-center:         56. kBytes
   wavefun   :      27032. kBytes
 
     INWAV:  cpu time    0.00: real time    0.00
 Broyden mixing: mesh for mixing (old mesh)
   NGX = 11   NGY = 11   NGZ =165
  (NGX  = 48   NGY  = 48   NGZ  =672)
  gives a total of  19965 points

 initial charge density was supplied:
 charge density of overlapping atoms calculated
 number of electron     103.0000000 magnetization 
 keeping initial charge density in first step


--------------------------------------------------------------------------------------------------------


 Maximum index for augmentation-charges        22927 (set IRDMAX)


--------------------------------------------------------------------------------------------------------


 First call to EWALD:  gamma=   0.253
 Maximum number of real-space cells 7x 7x 1
 Maximum number of reciprocal cells 1x 1x15

 FEWALD executed in parallel
    FEWALD:  cpu time    0.00: real time    0.00


----------------------------------------- Iteration    1(   1)  ---------------------------------------


    POTLOK:  cpu time    0.11: real time    0.11
    SETDIJ:  cpu time    0.11: real time    0.11
     EDDAV:  cpu time    4.82: real time    4.85
       DOS:  cpu time    0.00: real time    0.00
    --------------------------------------------
      LOOP:  cpu time    5.04: real time    5.07

 eigenvalue-minimisations  :  2780
 total energy-change (2. order) : 0.5203255E+03  (-0.4557885E+04)
 number of electron     103.0000000 magnetization 
 augmentation part      103.0000000 magnetization 

 Free energy of the ion-electron system (eV)
  ---------------------------------------------------
  alpha Z        PSCENC =       140.40821301
  Ewald energy   TEWEN  =     15612.26308136
  -Hartree energ DENC   =    -20852.98966687
  -exchange      EXHF   =         0.00000000
  -V(xc)+E(xc)   XCENC  =      -439.75772908
  PAW double counting   =      4647.26951674    -3871.08436696
  entropy T*S    EENTRO =        -0.00441692
  eigenvalues    EBANDS =       332.46630744
  atomic energy  EATOM  =      4951.75456612
  ---------------------------------------------------
  free energy    TOTEN  =       520.32550484 eV

  energy without entropy =      520.32992176  energy(sigma->0) =      520.32771330


--------------------------------------------------------------------------------------------------------




----------------------------------------- Iteration    1(   2)  ---------------------------------------


     EDDAV:  cpu time    5.80: real time    5.81
       DOS:  cpu time    0.00: real time    0.00
    --------------------------------------------
      LOOP:  cpu time    5.81: real time    5.81

 eigenvalue-minimisations  :  3582
 total energy-change (2. order) :-0.6224869E+03  (-0.5919918E+03)
 number of electron     103.0000000 magnetization 
 augmentation part      103.0000000 magnetization 

 Free energy of the ion-electron system (eV)
  ---------------------------------------------------
  alpha Z        PSCENC =       140.40821301
  Ewald energy   TEWEN  =     15612.26308136
  -Hartree energ DENC   =    -20852.98966687
  -exchange      EXHF   =         0.00000000
  -V(xc)+E(xc)   XCENC  =      -439.75772908
  PAW double counting   =      4647.26951674    -3871.08436696
  entropy T*S    EENTRO =        -0.00717253
  eigenvalues    EBANDS =      -290.01782817
  atomic energy  EATOM  =      4951.75456612
  ---------------------------------------------------
  free energy    TOTEN  =      -102.16138638 eV

  energy without entropy =     -102.15421385  energy(sigma->0) =     -102.15780012


--------------------------------------------------------------------------------------------------------




----------------------------------------- Iteration    1(   3)  ---------------------------------------


     EDDAV:  cpu time    5.31: real time    5.32
       DOS:  cpu time    0.00: real time    0.00
    --------------------------------------------
      LOOP:  cpu time    5.31: real time    5.32

 eigenvalue-minimisations  :  3232
 total energy-change (2. order) :-0.5882718E+02  (-0.5847049E+02)
 number of electron     103.0000000 magnetization 
 augmentation part      103.0000000 magnetization 

 Free energy of the ion-electron system (eV)
  ---------------------------------------------------
  alpha Z        PSCENC =       140.40821301
  Ewald energy   TEWEN  =     15612.26308136
  -Hartree energ DENC   =    -20852.98966687
  -exchange      EXHF   =         0.00000000
  -V(xc)+E(xc)   XCENC  =      -439.75772908
  PAW double counting   =      4647.26951674    -3871.08436696
  entropy T*S    EENTRO =        -0.00453486
  eigenvalues    EBANDS =      -348.84764971
  atomic energy  EATOM  =      4951.75456612
  ---------------------------------------------------
  free energy    TOTEN  =      -160.98857025 eV

  energy without entropy =     -160.98403539  energy(sigma->0) =     -160.98630282


--------------------------------------------------------------------------------------------------------




----------------------------------------- Iteration    1(   4)  ---------------------------------------


     EDDAV:  cpu time    5.47: real time    5.48
       DOS:  cpu time    0.00: real time    0.00
    --------------------------------------------
      LOOP:  cpu time    5.47: real time    5.48

 eigenvalue-minimisations  :  3240
 total energy-change (2. order) :-0.7765519E+00  (-0.7752753E+00)
 number of electron     103.0000000 magnetization 
 augmentation part      103.0000000 magnetization 

 Free energy of the ion-electron system (eV)
  ---------------------------------------------------
  alpha Z        PSCENC =       140.40821301
  Ewald energy   TEWEN  =     15612.26308136
  -Hartree energ DENC   =    -20852.98966687
  -exchange      EXHF   =         0.00000000
  -V(xc)+E(xc)   XCENC  =      -439.75772908
  PAW double counting   =      4647.26951674    -3871.08436696
  entropy T*S    EENTRO =        -0.00412439
  eigenvalues    EBANDS =      -349.62461210
  atomic energy  EATOM  =      4951.75456612
  ---------------------------------------------------
  free energy    TOTEN  =      -161.76512217 eV

  energy without entropy =     -161.76099778  energy(sigma->0) =     -161.76305997


--------------------------------------------------------------------------------------------------------




----------------------------------------- Iteration    1(   5)  ---------------------------------------


     EDDAV:  cpu time    5.50: real time    5.50
       DOS:  cpu time    0.00: real time    0.00
    CHARGE:  cpu time    0.40: real time    0.40
    MIXING:  cpu time    0.01: real time    0.01
    --------------------------------------------
      LOOP:  cpu time    5.91: real time    5.92

 eigenvalue-minimisations  :  3352
 total energy-change (2. order) :-0.1206907E-01  (-0.1206365E-01)
 number of electron     103.0000001 magnetization 
 augmentation part        7.7271583 magnetization 

 Broyden mixing:
  rms(total) = 0.23059E+01    rms(broyden)= 0.23054E+01
  rms(prec ) = 0.23587E+01
  weight for this iteration     100.00

 Free energy of the ion-electron system (eV)
  ---------------------------------------------------
  alpha Z        PSCENC =       140.40821301
  Ewald energy   TEWEN  =     15612.26308136
  -Hartree energ DENC   =    -20852.98966687
  -exchange      EXHF   =         0.00000000
  -V(xc)+E(xc)   XCENC  =      -439.75772908
  PAW double counting   =      4647.26951674    -3871.08436696
  entropy T*S    EENTRO =        -0.00411513
  eigenvalues    EBANDS =      -349.63669043
  atomic energy  EATOM  =      4951.75456612
  ---------------------------------------------------
  free energy    TOTEN  =      -161.77719124 eV

  energy without entropy =     -161.77307611  energy(sigma->0) =     -161.77513367


--------------------------------------------------------------------------------------------------------




----------------------------------------- Iteration    1(   6)  ---------------------------------------


    POTLOK:  cpu time    0.11: real time    0.11
    SETDIJ:  cpu time    0.11: real time    0.11
     EDDAV:  cpu time    5.19: real time    5.20
       DOS:  cpu time    0.00: real time    0.00
    CHARGE:  cpu time    0.41: real time    0.41
    MIXING:  cpu time    0.01: real time    0.01
    --------------------------------------------
      LOOP:  cpu time    5.83: real time    5.83

 eigenvalue-minimisations  :  3120
 total energy-change (2. order) : 0.1600303E+02  (-0.9294682E+01)
 number of electron     103.0000001 magnetization 
 augmentation part        6.2487850 magnetization 

 Broyden mixing:
  rms(total) = 0.78287E+00    rms(broyden)= 0.78188E+00
  rms(prec ) = 0.78897E+00
  weight for this iteration     100.00

 eigenvalues of (default mixing * dielectric matrix)
  average eigenvalue GAMMA=   0.8393
  0.8393

 Free energy of the ion-electron system (eV)
  ---------------------------------------------------
  alpha Z        PSCENC =       140.40821301
  Ewald energy   TEWEN  =     15612.26308136
  -Hartree energ DENC   =    -21043.24083366
  -exchange      EXHF   =         0.00000000
  -V(xc)+E(xc)   XCENC  =      -426.26724842
  PAW double counting   =      5502.87677074    -4730.16455750
  entropy T*S    EENTRO =        -0.00286466
  eigenvalues    EBANDS =      -153.40128342
  atomic energy  EATOM  =      4951.75456612
  ---------------------------------------------------
  free energy    TOTEN  =      -145.77415642 eV

  energy without entropy =     -145.77129176  energy(sigma->0) =     -145.77272409


--------------------------------------------------------------------------------------------------------




----------------------------------------- Iteration    1(   7)  ---------------------------------------


    POTLOK:  cpu time    0.11: real time    0.11
    SETDIJ:  cpu time    0.12: real time    0.12
     EDDAV:  cpu time    5.07: real time    5.08
       DOS:  cpu time    0.00: real time    0.00
    CHARGE:  cpu time    0.42: real time    0.42
    MIXING:  cpu time    0.00: real time    0.00
    --------------------------------------------
      LOOP:  cpu time    5.73: real time    5.73

 eigenvalue-minimisations  :  3034
 total energy-change (2. order) : 0.1341194E+00  (-0.1768688E+00)
 number of electron     103.0000001 magnetization 
 augmentation part        6.2946775 magnetization 

 Broyden mixing:
  rms(total) = 0.47692E+00    rms(broyden)= 0.47691E+00
  rms(prec ) = 0.48174E+00
  weight for this iteration     100.00

 eigenvalues of (default mixing * dielectric matrix)
  average eigenvalue GAMMA=   1.6392
  0.9732  2.3053

 Free energy of the ion-electron system (eV)
  ---------------------------------------------------
  alpha Z        PSCENC =       140.40821301
  Ewald energy   TEWEN  =     15612.26308136
  -Hartree energ DENC   =    -21040.61332494
  -exchange      EXHF   =         0.00000000
  -V(xc)+E(xc)   XCENC  =      -425.89721730
  PAW double counting   =      5799.84280360    -5026.65741735
  entropy T*S    EENTRO =        -0.00310974
  eigenvalues    EBANDS =      -156.73763174
  atomic energy  EATOM  =      4951.75456612
  ---------------------------------------------------
  free energy    TOTEN  =      -145.64003698 eV

  energy without entropy =     -145.63692724  energy(sigma->0) =     -145.63848211


--------------------------------------------------------------------------------------------------------




----------------------------------------- Iteration    1(   8)  ---------------------------------------


    POTLOK:  cpu time    0.11: real time    0.11
    SETDIJ:  cpu time    0.11: real time    0.11
     EDDAV:  cpu time    5.40: real time    5.41
       DOS:  cpu time    0.00: real time    0.00
    CHARGE:  cpu time    0.42: real time    0.42
    MIXING:  cpu time    0.01: real time    0.01
    --------------------------------------------
      LOOP:  cpu time    6.05: real time    6.06

 eigenvalue-minimisations  :  3204
 total energy-change (2. order) : 0.1149530E+00  (-0.5164761E-01)
 number of electron     103.0000001 magnetization 
 augmentation part        6.3477880 magnetization 

 Broyden mixing:
  rms(total) = 0.79172E-01    rms(broyden)= 0.79120E-01
  rms(prec ) = 0.84667E-01
  weight for this iteration     100.00

 eigenvalues of (default mixing * dielectric matrix)
  average eigenvalue GAMMA=   1.4024
  2.4412  0.8830  0.8830

 Free energy of the ion-electron system (eV)
  ---------------------------------------------------
  alpha Z        PSCENC =       140.40821301
  Ewald energy   TEWEN  =     15612.26308136
  -Hartree energ DENC   =    -21045.89064094
  -exchange      EXHF   =         0.00000000
  -V(xc)+E(xc)   XCENC  =      -424.30058982
  PAW double counting   =      6321.45935571    -5547.92573188
  entropy T*S    EENTRO =        -0.00379741
  eigenvalues    EBANDS =      -153.28954016
  atomic energy  EATOM  =      4951.75456612
  ---------------------------------------------------
  free energy    TOTEN  =      -145.52508402 eV

  energy without entropy =     -145.52128661  energy(sigma->0) =     -145.52318531


--------------------------------------------------------------------------------------------------------




----------------------------------------- Iteration    1(   9)  ---------------------------------------


    POTLOK:  cpu time    0.11: real time    0.11
    SETDIJ:  cpu time    0.11: real time    0.11
     EDDAV:  cpu time    5.22: real time    5.23
       DOS:  cpu time    0.00: real time    0.00
    CHARGE:  cpu time    0.42: real time    0.42
    MIXING:  cpu time    0.01: real time    0.01
    --------------------------------------------
      LOOP:  cpu time    5.86: real time    5.87

 eigenvalue-minimisations  :  3140
 total energy-change (2. order) : 0.1213013E-01  (-0.9141873E-02)
 number of electron     103.0000001 magnetization 
 augmentation part        6.3244966 magnetization 

 Broyden mixing:
  rms(total) = 0.48463E-01    rms(broyden)= 0.48461E-01
  rms(prec ) = 0.49567E-01
  weight for this iteration     100.00

 eigenvalues of (default mixing * dielectric matrix)
  average eigenvalue GAMMA=   1.4818
  2.4366  0.9884  0.9884  1.5138

 Free energy of the ion-electron system (eV)
  ---------------------------------------------------
  alpha Z        PSCENC =       140.40821301
  Ewald energy   TEWEN  =     15612.26308136
  -Hartree energ DENC   =    -21050.05589475
  -exchange      EXHF   =         0.00000000
  -V(xc)+E(xc)   XCENC  =      -423.90191684
  PAW double counting   =      6339.79749770    -5566.32097874
  entropy T*S    EENTRO =        -0.00389539
  eigenvalues    EBANDS =      -149.45362635
  atomic energy  EATOM  =      4951.75456612
  ---------------------------------------------------
  free energy    TOTEN  =      -145.51295388 eV

  energy without entropy =     -145.50905850  energy(sigma->0) =     -145.51100619


--------------------------------------------------------------------------------------------------------




----------------------------------------- Iteration    1(  10)  ---------------------------------------


    POTLOK:  cpu time    0.11: real time    0.11
    SETDIJ:  cpu time    0.11: real time    0.11
     EDDAV:  cpu time    5.32: real time    5.32
       DOS:  cpu time    0.00: real time    0.00
    CHARGE:  cpu time    0.40: real time    0.40
    MIXING:  cpu time    0.00: real time    0.00
    --------------------------------------------
      LOOP:  cpu time    5.95: real time    5.96

 eigenvalue-minimisations  :  3156
 total energy-change (2. order) : 0.5678821E-03  (-0.3875880E-02)
 number of electron     103.0000001 magnetization 
 augmentation part        6.3076325 magnetization 

 Broyden mixing:
  rms(total) = 0.24622E-01    rms(broyden)= 0.24601E-01
  rms(prec ) = 0.25203E-01
  weight for this iteration     100.00

 eigenvalues of (default mixing * dielectric matrix)
  average eigenvalue GAMMA=   1.3423
  2.5012  1.9433  0.9318  0.9318  0.4033

 Free energy of the ion-electron system (eV)
  ---------------------------------------------------
  alpha Z        PSCENC =       140.40821301
  Ewald energy   TEWEN  =     15612.26308136
  -Hartree energ DENC   =    -21051.40854127
  -exchange      EXHF   =         0.00000000
  -V(xc)+E(xc)   XCENC  =      -423.74576155
  PAW double counting   =      6322.91107065    -5549.46307548
  entropy T*S    EENTRO =        -0.00376185
  eigenvalues    EBANDS =      -148.22817699
  atomic energy  EATOM  =      4951.75456612
  ---------------------------------------------------
  free energy    TOTEN  =      -145.51238600 eV

  energy without entropy =     -145.50862415  energy(sigma->0) =     -145.51050508


--------------------------------------------------------------------------------------------------------




----------------------------------------- Iteration    1(  11)  ---------------------------------------


    POTLOK:  cpu time    0.11: real time    0.11
    SETDIJ:  cpu time    0.11: real time    0.11
     EDDAV:  cpu time    5.26: real time    5.27
       DOS:  cpu time    0.00: real time    0.00
    CHARGE:  cpu time    0.40: real time    0.40
    MIXING:  cpu time    0.01: real time    0.01
    --------------------------------------------
      LOOP:  cpu time    5.88: real time    5.89

 eigenvalue-minimisations  :  3108
 total energy-change (2. order) :-0.5368706E-03  (-0.3539510E-03)
 number of electron     103.0000001 magnetization 
 augmentation part        6.3091654 magnetization 

 Broyden mixing:
  rms(total) = 0.17723E-01    rms(broyden)= 0.17722E-01
  rms(prec ) = 0.18286E-01
  weight for this iteration     100.00

 eigenvalues of (default mixing * dielectric matrix)
  average eigenvalue GAMMA=   1.4237
  2.7551  2.2425  0.9048  0.9048  0.9913  0.7434

 Free energy of the ion-electron system (eV)
  ---------------------------------------------------
  alpha Z        PSCENC =       140.40821301
  Ewald energy   TEWEN  =     15612.26308136
  -Hartree energ DENC   =    -21051.28333548
  -exchange      EXHF   =         0.00000000
  -V(xc)+E(xc)   XCENC  =      -423.69707535
  PAW double counting   =      6302.59410395    -5529.14884365
  entropy T*S    EENTRO =        -0.00381337
  eigenvalues    EBANDS =      -148.39981947
  atomic energy  EATOM  =      4951.75456612
  ---------------------------------------------------
  free energy    TOTEN  =      -145.51292287 eV

  energy without entropy =     -145.50910950  energy(sigma->0) =     -145.51101619


--------------------------------------------------------------------------------------------------------




----------------------------------------- Iteration    1(  12)  ---------------------------------------


    POTLOK:  cpu time    0.11: real time    0.11
    SETDIJ:  cpu time    0.11: real time    0.11
     EDDAV:  cpu time    6.27: real time    6.28
       DOS:  cpu time    0.00: real time    0.00
    CHARGE:  cpu time    0.40: real time    0.40
    MIXING:  cpu time    0.01: real time    0.01
    --------------------------------------------
      LOOP:  cpu time    6.89: real time    6.90

 eigenvalue-minimisations  :  3934
 total energy-change (2. order) : 0.2612994E-03  (-0.2635526E-03)
 number of electron     103.0000001 magnetization 
 augmentation part        6.3081323 magnetization 

 Broyden mixing:
  rms(total) = 0.67496E-02    rms(broyden)= 0.67467E-02
  rms(prec ) = 0.74030E-02
  weight for this iteration     100.00

 eigenvalues of (default mixing * dielectric matrix)
  average eigenvalue GAMMA=   1.4135
  2.9145  2.4991  0.9472  0.9472  0.9422  0.9422  0.7023

 Free energy of the ion-electron system (eV)
  ---------------------------------------------------
  alpha Z        PSCENC =       140.40821301
  Ewald energy   TEWEN  =     15612.26308136
  -Hartree energ DENC   =    -21051.17023878
  -exchange      EXHF   =         0.00000000
  -V(xc)+E(xc)   XCENC  =      -423.64733294
  PAW double counting   =      6282.16562106    -5508.73444764
  entropy T*S    EENTRO =        -0.00388215
  eigenvalues    EBANDS =      -148.54824161
  atomic energy  EATOM  =      4951.75456612
  ---------------------------------------------------
  free energy    TOTEN  =      -145.51266157 eV

  energy without entropy =     -145.50877942  energy(sigma->0) =     -145.51072050


--------------------------------------------------------------------------------------------------------




----------------------------------------- Iteration    1(  13)  ---------------------------------------


    POTLOK:  cpu time    0.11: real time    0.11
    SETDIJ:  cpu time    0.11: real time    0.11
     EDDAV:  cpu time    5.30: real time    5.31
       DOS:  cpu time    0.00: real time    0.00
    CHARGE:  cpu time    0.40: real time    0.40
    MIXING:  cpu time    0.01: real time    0.01
    --------------------------------------------
      LOOP:  cpu time    5.93: real time    5.94

 eigenvalue-minimisations  :  3172
 total energy-change (2. order) : 0.4660165E-04  (-0.1403619E-03)
 number of electron     103.0000001 magnetization 
 augmentation part        6.3118124 magnetization 

 Broyden mixing:
  rms(total) = 0.50045E-02    rms(broyden)= 0.50012E-02
  rms(prec ) = 0.55983E-02
  weight for this iteration     100.00

 eigenvalues of (default mixing * dielectric matrix)
  average eigenvalue GAMMA=   1.3662
  2.9492  2.5325  0.9597  0.9597  1.0131  1.0131  0.7512  0.7512

 Free energy of the ion-electron system (eV)
  ---------------------------------------------------
  alpha Z        PSCENC =       140.40821301
  Ewald energy   TEWEN  =     15612.26308136
  -Hartree energ DENC   =    -21050.53435918
  -exchange      EXHF   =         0.00000000
  -V(xc)+E(xc)   XCENC  =      -423.67408738
  PAW double counting   =      6273.06461642    -5499.62844992
  entropy T*S    EENTRO =        -0.00391744
  eigenvalues    EBANDS =      -149.16227797
  atomic energy  EATOM  =      4951.75456612
  ---------------------------------------------------
  free energy    TOTEN  =      -145.51261497 eV

  energy without entropy =     -145.50869753  energy(sigma->0) =     -145.51065625


--------------------------------------------------------------------------------------------------------




----------------------------------------- Iteration    1(  14)  ---------------------------------------


    POTLOK:  cpu time    0.11: real time    0.11
    SETDIJ:  cpu time    0.11: real time    0.11
     EDDAV:  cpu time    5.68: real time    5.68
       DOS:  cpu time    0.00: real time    0.00
    CHARGE:  cpu time    0.40: real time    0.40
    MIXING:  cpu time    0.01: real time    0.01
    --------------------------------------------
      LOOP:  cpu time    6.30: real time    6.31

 eigenvalue-minimisations  :  3480
 total energy-change (2. order) : 0.7235111E-04  (-0.1805648E-04)
 number of electron     103.0000001 magnetization 
 augmentation part        6.3122848 magnetization 

 Broyden mixing:
  rms(total) = 0.28510E-02    rms(broyden)= 0.28505E-02
  rms(prec ) = 0.35808E-02
  weight for this iteration     100.00

 eigenvalues of (default mixing * dielectric matrix)
  average eigenvalue GAMMA=   1.4100
  3.0017  2.5948  1.5717  1.0251  1.0251  1.0259  0.8800  0.8800  0.6860

 Free energy of the ion-electron system (eV)
  ---------------------------------------------------
  alpha Z        PSCENC =       140.40821301
  Ewald energy   TEWEN  =     15612.26308136
  -Hartree energ DENC   =    -21050.37111712
  -exchange      EXHF   =         0.00000000
  -V(xc)+E(xc)   XCENC  =      -423.67752519
  PAW double counting   =      6272.04907463    -5498.61172117
  entropy T*S    EENTRO =        -0.00392702
  eigenvalues    EBANDS =      -149.32318726
  atomic energy  EATOM  =      4951.75456612
  ---------------------------------------------------
  free energy    TOTEN  =      -145.51254262 eV

  energy without entropy =     -145.50861560  energy(sigma->0) =     -145.51057911


--------------------------------------------------------------------------------------------------------




----------------------------------------- Iteration    1(  15)  ---------------------------------------


    POTLOK:  cpu time    0.17: real time    0.17
    SETDIJ:  cpu time    0.10: real time    0.11
     EDDAV:  cpu time    5.57: real time    5.58
       DOS:  cpu time    0.00: real time    0.00
    CHARGE:  cpu time    0.41: real time    0.41
    MIXING:  cpu time    0.01: real time    0.01
    --------------------------------------------
      LOOP:  cpu time    6.26: real time    6.27

 eigenvalue-minimisations  :  3284
 total energy-change (2. order) : 0.6138587E-04  (-0.8198476E-05)
 number of electron     103.0000001 magnetization 
 augmentation part        6.3120738 magnetization 

 Broyden mixing:
  rms(total) = 0.15072E-02    rms(broyden)= 0.15068E-02
  rms(prec ) = 0.23191E-02
  weight for this iteration     100.00

 eigenvalues of (default mixing * dielectric matrix)
  average eigenvalue GAMMA=   1.4120
  2.9805  2.4290  2.4290  0.9589  0.9589  1.0108  1.0108  0.7091  0.8165  0.8165

 Free energy of the ion-electron system (eV)
  ---------------------------------------------------
  alpha Z        PSCENC =       140.40821301
  Ewald energy   TEWEN  =     15612.26308136
  -Hartree energ DENC   =    -21050.18126940
  -exchange      EXHF   =         0.00000000
  -V(xc)+E(xc)   XCENC  =      -423.67742541
  PAW double counting   =      6271.92651427    -5498.48858206
  entropy T*S    EENTRO =        -0.00394372
  eigenvalues    EBANDS =      -149.51363540
  atomic energy  EATOM  =      4951.75456612
  ---------------------------------------------------
  free energy    TOTEN  =      -145.51248123 eV

  energy without entropy =     -145.50853752  energy(sigma->0) =     -145.51050937


--------------------------------------------------------------------------------------------------------




----------------------------------------- Iteration    1(  16)  ---------------------------------------


    POTLOK:  cpu time    0.11: real time    0.11
    SETDIJ:  cpu time    0.11: real time    0.11
     EDDAV:  cpu time    5.22: real time    5.23
       DOS:  cpu time    0.00: real time    0.00
    CHARGE:  cpu time    0.40: real time    0.40
    MIXING:  cpu time    0.01: real time    0.01
    --------------------------------------------
      LOOP:  cpu time    5.84: real time    5.85

 eigenvalue-minimisations  :  3118
 total energy-change (2. order) : 0.3152685E-04  (-0.7123847E-05)
 number of electron     103.0000001 magnetization 
 augmentation part        6.3115650 magnetization 

 Broyden mixing:
  rms(total) = 0.80628E-03    rms(broyden)= 0.80539E-03
  rms(prec ) = 0.17427E-02
  weight for this iteration     100.00

 eigenvalues of (default mixing * dielectric matrix)
  average eigenvalue GAMMA=   1.4182
  2.7694  2.7694  2.4107  1.0656  1.0656  1.1252  0.6990  0.9895  0.9895  0.8584
  0.8584

 Free energy of the ion-electron system (eV)
  ---------------------------------------------------
  alpha Z        PSCENC =       140.40821301
  Ewald energy   TEWEN  =     15612.26308136
  -Hartree energ DENC   =    -21050.10457218
  -exchange      EXHF   =         0.00000000
  -V(xc)+E(xc)   XCENC  =      -423.67292114
  PAW double counting   =      6272.86025572    -5499.42266509
  entropy T*S    EENTRO =        -0.00395303
  eigenvalues    EBANDS =      -149.59445448
  atomic energy  EATOM  =      4951.75456612
  ---------------------------------------------------
  free energy    TOTEN  =      -145.51244971 eV

  energy without entropy =     -145.50849668  energy(sigma->0) =     -145.51047319


--------------------------------------------------------------------------------------------------------




----------------------------------------- Iteration    1(  17)  ---------------------------------------


    POTLOK:  cpu time    0.11: real time    0.11
    SETDIJ:  cpu time    0.11: real time    0.11
     EDDAV:  cpu time    4.39: real time    4.40
       DOS:  cpu time    0.00: real time    0.00
    CHARGE:  cpu time    0.41: real time    0.41
    MIXING:  cpu time    0.01: real time    0.01
    --------------------------------------------
      LOOP:  cpu time    5.03: real time    5.03

 eigenvalue-minimisations  :  2426
 total energy-change (2. order) : 0.3029802E-04  (-0.2980061E-05)
 number of electron     103.0000001 magnetization 
 augmentation part        6.3117543 magnetization 

 Broyden mixing:
  rms(total) = 0.94213E-03    rms(broyden)= 0.94196E-03
  rms(prec ) = 0.16060E-02
  weight for this iteration     100.00

 eigenvalues of (default mixing * dielectric matrix)
  average eigenvalue GAMMA=   1.5635
  4.4155  2.8753  2.4014  1.8424  1.0223  1.0223  0.9987  0.9987  0.8302  0.8302
  0.7018  0.8234

 Free energy of the ion-electron system (eV)
  ---------------------------------------------------
  alpha Z        PSCENC =       140.40821301
  Ewald energy   TEWEN  =     15612.26308136
  -Hartree energ DENC   =    -21049.89143400
  -exchange      EXHF   =         0.00000000
  -V(xc)+E(xc)   XCENC  =      -423.67473821
  PAW double counting   =      6273.09586368    -5499.65772797
  entropy T*S    EENTRO =        -0.00396706
  eigenvalues    EBANDS =      -149.80627633
  atomic energy  EATOM  =      4951.75456612
  ---------------------------------------------------
  free energy    TOTEN  =      -145.51241941 eV

  energy without entropy =     -145.50845235  energy(sigma->0) =     -145.51043588


--------------------------------------------------------------------------------------------------------




----------------------------------------- Iteration    1(  18)  ---------------------------------------


    POTLOK:  cpu time    0.11: real time    0.11
    SETDIJ:  cpu time    0.11: real time    0.11
     EDDAV:  cpu time    4.88: real time    4.89
       DOS:  cpu time    0.00: real time    0.00
    CHARGE:  cpu time    0.40: real time    0.41
    MIXING:  cpu time    0.01: real time    0.01
    --------------------------------------------
      LOOP:  cpu time    5.51: real time    5.52

 eigenvalue-minimisations  :  2778
 total energy-change (2. order) : 0.3739383E-04  (-0.4730274E-05)
 number of electron     103.0000001 magnetization 
 augmentation part        6.3119577 magnetization 

 Broyden mixing:
  rms(total) = 0.14513E-02    rms(broyden)= 0.14511E-02
  rms(prec ) = 0.17273E-02
  weight for this iteration     100.00

 eigenvalues of (default mixing * dielectric matrix)
  average eigenvalue GAMMA=   1.5668
  4.6227  2.9461  2.3641  2.2217  1.0679  1.0679  0.8825  0.8825  0.9598  0.9598
  0.8409  0.8409  0.7118

 Free energy of the ion-electron system (eV)
  ---------------------------------------------------
  alpha Z        PSCENC =       140.40821301
  Ewald energy   TEWEN  =     15612.26308136
  -Hartree energ DENC   =    -21049.53101817
  -exchange      EXHF   =         0.00000000
  -V(xc)+E(xc)   XCENC  =      -423.67568905
  PAW double counting   =      6272.81658676    -5499.37777234
  entropy T*S    EENTRO =        -0.00398774
  eigenvalues    EBANDS =      -150.16636196
  atomic energy  EATOM  =      4951.75456612
  ---------------------------------------------------
  free energy    TOTEN  =      -145.51238202 eV

  energy without entropy =     -145.50839428  energy(sigma->0) =     -145.51038815


--------------------------------------------------------------------------------------------------------




----------------------------------------- Iteration    1(  19)  ---------------------------------------


    POTLOK:  cpu time    0.11: real time    0.11
    SETDIJ:  cpu time    0.11: real time    0.11
     EDDAV:  cpu time    4.99: real time    5.00
       DOS:  cpu time    0.00: real time    0.00
    CHARGE:  cpu time    0.40: real time    0.41
    MIXING:  cpu time    0.01: real time    0.01
    --------------------------------------------
      LOOP:  cpu time    5.62: real time    5.63

 eigenvalue-minimisations  :  2906
 total energy-change (2. order) : 0.1316759E-04  (-0.5414662E-05)
 number of electron     103.0000001 magnetization 
 augmentation part        6.3119386 magnetization 

 Broyden mixing:
  rms(total) = 0.83628E-03    rms(broyden)= 0.83614E-03
  rms(prec ) = 0.11314E-02
  weight for this iteration     100.00

 eigenvalues of (default mixing * dielectric matrix)
  average eigenvalue GAMMA=   1.5157
  4.9168  2.9732  2.3952  2.2926  1.0863  1.0863  0.9278  0.9278  0.9356  0.9356
  0.7120  0.9056  0.8468  0.2786

 Free energy of the ion-electron system (eV)
  ---------------------------------------------------
  alpha Z        PSCENC =       140.40821301
  Ewald energy   TEWEN  =     15612.26308136
  -Hartree energ DENC   =    -21049.41738912
  -exchange      EXHF   =         0.00000000
  -V(xc)+E(xc)   XCENC  =      -423.67382370
  PAW double counting   =      6272.84440599    -5499.40580439
  entropy T*S    EENTRO =        -0.00399233
  eigenvalues    EBANDS =      -150.28162578
  atomic energy  EATOM  =      4951.75456612
  ---------------------------------------------------
  free energy    TOTEN  =      -145.51236885 eV

  energy without entropy =     -145.50837651  energy(sigma->0) =     -145.51037268


--------------------------------------------------------------------------------------------------------




----------------------------------------- Iteration    1(  20)  ---------------------------------------


    POTLOK:  cpu time    0.11: real time    0.11
    SETDIJ:  cpu time    0.11: real time    0.11
     EDDAV:  cpu time    5.11: real time    5.12
       DOS:  cpu time    0.00: real time    0.00
    CHARGE:  cpu time    0.40: real time    0.41
    MIXING:  cpu time    0.01: real time    0.01
    --------------------------------------------
      LOOP:  cpu time    5.74: real time    5.74

 eigenvalue-minimisations  :  3004
 total energy-change (2. order) : 0.1513026E-04  (-0.4241283E-05)
 number of electron     103.0000001 magnetization 
 augmentation part        6.3116830 magnetization 

 Broyden mixing:
  rms(total) = 0.76828E-03    rms(broyden)= 0.76783E-03
  rms(prec ) = 0.95425E-03
  weight for this iteration     100.00

 eigenvalues of (default mixing * dielectric matrix)
  average eigenvalue GAMMA=   1.6054
  6.2493  2.8839  2.4255  2.4255  1.2660  1.0809  1.0809  1.0423  0.8429  0.8429
  0.9020  0.9020  0.7096  0.7134  0.7134

 Free energy of the ion-electron system (eV)
  ---------------------------------------------------
  alpha Z        PSCENC =       140.40821301
  Ewald energy   TEWEN  =     15612.26308136
  -Hartree energ DENC   =    -21049.28044993
  -exchange      EXHF   =         0.00000000
  -V(xc)+E(xc)   XCENC  =      -423.67058056
  PAW double counting   =      6273.31925981    -5499.88171000
  entropy T*S    EENTRO =        -0.00400041
  eigenvalues    EBANDS =      -150.42073312
  atomic energy  EATOM  =      4951.75456612
  ---------------------------------------------------
  free energy    TOTEN  =      -145.51235372 eV

  energy without entropy =     -145.50835331  energy(sigma->0) =     -145.51035351


--------------------------------------------------------------------------------------------------------




----------------------------------------- Iteration    1(  21)  ---------------------------------------


    POTLOK:  cpu time    0.11: real time    0.11
    SETDIJ:  cpu time    0.11: real time    0.11
     EDDAV:  cpu time    4.80: real time    4.81
       DOS:  cpu time    0.00: real time    0.00
    --------------------------------------------
      LOOP:  cpu time    5.02: real time    5.03

 eigenvalue-minimisations  :  2724
 total energy-change (2. order) : 0.4603731E-05  (-0.4201863E-05)
 number of electron     103.0000001 magnetization 
 augmentation part        6.3116830 magnetization 

 Free energy of the ion-electron system (eV)
  ---------------------------------------------------
  alpha Z        PSCENC =       140.40821301
  Ewald energy   TEWEN  =     15612.26308136
  -Hartree energ DENC   =    -21049.17051431
  -exchange      EXHF   =         0.00000000
  -V(xc)+E(xc)   XCENC  =      -423.66913888
  PAW double counting   =      6273.25095584    -5499.81397801
  entropy T*S    EENTRO =        -0.00400467
  eigenvalues    EBANDS =      -150.53152958
  atomic energy  EATOM  =      4951.75456612
  ---------------------------------------------------
  free energy    TOTEN  =      -145.51234911 eV

  energy without entropy =     -145.50834444  energy(sigma->0) =     -145.51034678


--------------------------------------------------------------------------------------------------------




 average (electrostatic) potential at core
  the test charge radii are     0.7215  1.0714  1.0406
  (the norm of the test charge is              1.0000)
       1 -70.0529       2 -69.9530       3 -69.9421       4 -69.9347       5 -69.9397
       6 -69.9425       7 -70.0539       8 -69.9447       9 -69.9342      10 -69.9534
      11 -35.5853      12 -35.5694      13 -35.5842      14 -35.6077      15 -35.5686
      16 -35.5724      17 -35.7958      18 -35.7955      19 -35.5750      20 -35.5673
      21 -35.6085      22 -74.3184      23 -74.2078      24 -74.2708      25 -74.2491
      26 -74.2080      27 -74.2490      28 -74.2710
 
 
 
 E-fermi :   6.4615     XC(G=0): -10.3419     alpha+bet :-12.5762


 k-point     1 :       0.0000    0.0000    0.0000
  band No.  band energies     occupation 
      1     -14.2058      2.00000
      2     -14.1589      2.00000
      3     -14.0690      2.00000
      4     -13.9531      2.00000
      5     -13.8101      2.00000
      6     -13.6546      2.00000
      7     -13.4976      2.00000
      8     -13.3518      2.00000
      9     -13.2339      2.00000
     10     -13.1499      2.00000
     11      -3.8395      2.00000
     12      -3.5017      2.00000
     13      -3.0005      2.00000
     14      -2.3072      2.00000
     15      -1.7202      2.00000
     16      -1.5287      2.00000
     17      -1.5223      2.00000
     18      -1.0919      2.00000
     19      -0.9668      2.00000
     20      -0.3697      2.00000
     21      -0.2875      2.00000
     22       0.3623      2.00000
     23       0.5955      2.00000
     24       1.3256      2.00000
     25       1.3822      2.00000
     26       2.0818      2.00000
     27       2.3453      2.00000
     28       2.3470      2.00000
     29       2.3470      2.00000
     30       2.3691      2.00000
     31       2.3691      2.00000
     32       2.4176      2.00000
     33       2.4176      2.00000
     34       2.4768      2.00000
     35       2.4768      2.00000
     36       2.5509      2.00000
     37       2.5509      2.00000
     38       2.6293      2.00000
     39       2.6293      2.00000
     40       2.6502      2.00000
     41       2.7068      2.00000
     42       2.7068      2.00000
     43       2.7786      2.00000
     44       2.7786      2.00000
     45       2.8345      2.00000
     46       2.8345      2.00000
     47       2.8776      2.00000
     48       2.8776      2.00000
     49       3.9013      2.00000
     50       5.2171      2.00000
     51       6.5042      0.22749
     52       7.2976      0.00000
     53       7.4460      0.00000
     54       8.1318      0.00000
     55       8.2633      0.00000
     56       9.1384      0.00000
     57       9.1641      0.00000
     58       9.9200      0.00000
     59      10.0175      0.00000
     60      10.4604      0.00000
     61      10.4664      0.00000
     62      10.6040      0.00000
     63      11.3689      0.00000
     64      12.8522      0.00000
     65      14.3556      0.00000
     66      14.4821      0.00000

 k-point     2 :       0.0769    0.0000   -0.0000
  band No.  band energies     occupation 
      1     -14.1530      2.00000
      2     -14.1073      2.00000
      3     -14.0196      2.00000
      4     -13.9065      2.00000
      5     -13.7671      2.00000
      6     -13.6156      2.00000
      7     -13.4629      2.00000
      8     -13.3212      2.00000
      9     -13.2068      2.00000
     10     -13.1252      2.00000
     11      -3.7093      2.00000
     12      -3.3719      2.00000
     13      -2.8714      2.00000
     14      -2.1807      2.00000
     15      -1.6302      2.00000
     16      -1.4433      2.00000
     17      -1.4306      2.00000
     18      -1.0122      2.00000
     19      -0.8999      2.00000
     20      -0.3276      2.00000
     21      -0.2167      2.00000
     22       0.3935      2.00000
     23       0.6017      2.00000
     24       1.3210      2.00000
     25       1.3576      2.00000
     26       1.9731      2.00000
     27       2.1168      2.00000
     28       2.1423      2.00000
     29       2.1966      2.00000
     30       2.2117      2.00000
     31       2.2781      2.00000
     32       2.3030      2.00000
     33       2.3253      2.00000
     34       2.3580      2.00000
     35       2.3743      2.00000
     36       2.4340      2.00000
     37       2.4502      2.00000
     38       2.4991      2.00000
     39       2.5088      2.00000
     40       2.5659      2.00000
     41       2.5878      2.00000
     42       2.6298      2.00000
     43       2.6601      2.00000
     44       2.6660      2.00000
     45       2.7128      2.00000
     46       2.7385      2.00000
     47       2.7949      2.00000
     48       2.8383      2.00000
     49       4.0303      2.00000
     50       5.3602      2.00000
     51       6.6887      0.00000
     52       7.6174      0.00000
     53       7.7175      0.00000
     54       8.3409      0.00000
     55       8.5004      0.00000
     56       9.3371      0.00000
     57       9.3741      0.00000
     58      10.1394      0.00000
     59      10.2338      0.00000
     60      10.7032      0.00000
     61      10.7318      0.00000
     62      10.8835      0.00000
     63      11.5109      0.00000
     64      12.8966      0.00000
     65      13.9113      0.00000
     66      14.1750      0.00000

 k-point     3 :       0.1538    0.0000    0.0000
  band No.  band energies     occupation 
      1     -14.0016      2.00000
      2     -13.9597      2.00000
      3     -13.8783      2.00000
      4     -13.7739      2.00000
      5     -13.6450      2.00000
      6     -13.5056      2.00000
      7     -13.3655      2.00000
      8     -13.2357      2.00000
      9     -13.1315      2.00000
     10     -13.0568      2.00000
     11      -3.3195      2.00000
     12      -2.9831      2.00000
     13      -2.4851      2.00000
     14      -1.8040      2.00000
     15      -1.3786      2.00000
     16      -1.2185      2.00000
     17      -1.1533      2.00000
     18      -0.7782      2.00000
     19      -0.7259      2.00000
     20      -0.2278      2.00000
     21      -0.0726      2.00000
     22       0.4762      2.00000
     23       0.5275      2.00000
     24       1.0518      2.00000
     25       1.2336      2.00000
     26       1.5219      2.00000
     27       1.5352      2.00000
     28       1.5986      2.00000
     29       1.6577      2.00000
     30       1.6688      2.00000
     31       1.8269      2.00000
     32       1.8454      2.00000
     33       2.0351      2.00000
     34       2.1453      2.00000
     35       2.1844      2.00000
[...]
     17      -0.6308      2.00000
     18      -0.5498      2.00000
     19      -0.4129      2.00000
     20      -0.2736      2.00000
     21       0.1233      2.00000
     22       0.2574      2.00000
     23       0.3961      2.00000
     24       0.5425      2.00000
     25       0.7152      2.00000
     26       0.7219      2.00000
     27       0.8029      2.00000
     28       0.8668      2.00000
     29       0.9251      2.00000
     30       0.9660      2.00000
     31       1.0549      2.00000
     32       1.1266      2.00000
     33       1.1742      2.00000
     34       1.2834      2.00000
     35       1.3294      2.00000
     36       1.4570      2.00000
     37       1.5764      2.00000
     38       1.6284      2.00000
     39       1.7217      2.00000
     40       1.7952      2.00000
     41       1.8294      2.00000
     42       1.8912      2.00000
     43       1.9847      2.00000
     44       2.5249      2.00000
     45       3.3797      2.00000
     46       4.2113      2.00000
     47       4.3614      2.00000
     48       4.5281      2.00000
     49       4.9923      2.00000
     50       5.4443      2.00000
     51       5.7781      2.00000
     52       5.8050      2.00000
     53       6.0847      2.00000
     54       6.4684      1.54551
     55       6.6528      0.00001
     56       6.8347      0.00000
     57       7.2881      0.00000
     58       7.6830      0.00000
     59       8.1759      0.00000
     60       8.2633      0.00000
     61       8.6923      0.00000
     62       9.2778      0.00000
     63       9.4313      0.00000
     64       9.7937      0.00000
     65      10.4550      0.00000
     66      10.6526      0.00000

 k-point    20 :       0.3846    0.2308    0.0000
  band No.  band energies     occupation 
      1     -12.9548      2.00000
      2     -12.9534      2.00000
      3     -12.9347      2.00000
      4     -12.9212      2.00000
      5     -12.9056      2.00000
      6     -12.8860      2.00000
      7     -12.8657      2.00000
      8     -12.8471      2.00000
      9     -12.8297      2.00000
     10     -12.8186      2.00000
     11      -1.0603      2.00000
     12      -0.9788      2.00000
     13      -0.8485      2.00000
     14      -0.6891      2.00000
     15      -0.6223      2.00000
     16      -0.6033      2.00000
     17      -0.5655      2.00000
     18      -0.5527      2.00000
     19      -0.5117      2.00000
     20      -0.4907      2.00000
     21       0.3118      2.00000
     22       0.3448      2.00000
     23       0.3847      2.00000
     24       0.4088      2.00000
     25       0.4630      2.00000
     26       0.4853      2.00000
     27       0.5266      2.00000
     28       0.6759      2.00000
     29       0.8340      2.00000
     30       0.9921      2.00000
     31       1.2266      2.00000
     32       1.2338      2.00000
     33       1.4236      2.00000
     34       1.4285      2.00000
     35       1.5297      2.00000
     36       1.5602      2.00000
     37       1.7013      2.00000
     38       1.7994      2.00000
     39       1.8482      2.00000
     40       1.8568      2.00000
     41       2.4725      2.00000
     42       2.4730      2.00000
     43       2.7930      2.00000
     44       2.8079      2.00000
     45       3.2769      2.00000
     46       3.3228      2.00000
     47       3.9697      2.00000
     48       3.9846      2.00000
     49       4.6917      2.00000
     50       4.9856      2.00000
     51       5.6822      2.00000
     52       5.6888      2.00000
     53       5.9865      2.00000
     54       6.0074      2.00000
     55       6.4830      1.26184
     56       6.8742      0.00000
     57       6.9479      0.00000
     58       7.4356      0.00000
     59       7.9798      0.00000
     60       8.1793      0.00000
     61       8.3793      0.00000
     62       8.9755      0.00000
     63       9.6337      0.00000
     64       9.6483      0.00000
     65      10.0248      0.00000
     66      10.8288      0.00000

 k-point    21 :       0.3077    0.3077    0.0000
  band No.  band energies     occupation 
      1     -12.9287      2.00000
      2     -12.9267      2.00000
      3     -12.9026      2.00000
      4     -12.8931      2.00000
      5     -12.8824      2.00000
      6     -12.8682      2.00000
      7     -12.8540      2.00000
      8     -12.8414      2.00000
      9     -12.8293      2.00000
     10     -12.8219      2.00000
     11      -0.7083      2.00000
     12      -0.7060      2.00000
     13      -0.6401      2.00000
     14      -0.6295      2.00000
     15      -0.5340      2.00000
     16      -0.5253      2.00000
     17      -0.4134      2.00000
     18      -0.3129      2.00000
     19      -0.2735      2.00000
     20      -0.2115      2.00000
     21      -0.1057      2.00000
     22      -0.0530      2.00000
     23       0.0826      2.00000
     24       0.1008      2.00000
     25       0.2346      2.00000
     26       0.2712      2.00000
     27       0.3699      2.00000
     28       0.4414      2.00000
     29       0.5292      2.00000
     30       0.5635      2.00000
     31       1.2239      2.00000
     32       1.2413      2.00000
     33       1.4224      2.00000
     34       1.5491      2.00000
     35       1.6114      2.00000
     36       1.6345      2.00000
     37       1.6733      2.00000
     38       1.6800      2.00000
     39       1.7256      2.00000
     40       1.8175      2.00000
     41       2.3487      2.00000
     42       2.6795      2.00000
     43       3.1737      2.00000
     44       3.8479      2.00000
     45       3.9636      2.00000
     46       3.9780      2.00000
     47       4.2822      2.00000
     48       4.2871      2.00000
     49       4.6768      2.00000
     50       4.7525      2.00000
     51       4.7696      2.00000
     52       5.3428      2.00000
     53       5.4660      2.00000
     54       5.7272      2.00000
     55       6.2742      2.00000
     56       6.3678      1.99967
     57       7.0667      0.00000
     58       7.2483      0.00000
     59       7.6122      0.00000
     60       7.9615      0.00000
     61       8.4067      0.00000
     62       8.7058      0.00000
     63       9.2115      0.00000
     64       9.5444      0.00000
     65       9.9941      0.00000
     66      10.4064      0.00000


--------------------------------------------------------------------------------------------------------


 soft charge-density along one line, spin component           1
         0         1         2         3         4         5         6         7         8         9
 total charge-density along one line
 
 pseudopotential strength for first ion, spin component:           1
 12.169   0.000 -14.806   0.000   0.000   0.000  -0.003   0.000  -0.000   0.000  -0.000   0.000   0.003   0.000   0.000   0.000
-14.806   0.000  18.033   0.000  -0.000   0.000   0.004   0.000   0.000   0.000   0.000   0.000  -0.004   0.000  -0.000   0.000
  0.000   0.000  -0.000   0.000  -8.307   0.000  -0.000   0.000   0.000   0.000   9.944   0.000   0.000   0.000  -0.000   0.000
 -0.003   0.000   0.004   0.000  -0.000   0.000  -8.314   0.000   0.000   0.000   0.000   0.000   9.954   0.000  -0.000   0.000
 -0.000   0.000   0.000   0.000   0.000   0.000   0.000   0.000  -8.307   0.000  -0.000   0.000  -0.000   0.000   9.944   0.000
 -0.000   0.000   0.000   0.000   9.944   0.000   0.000   0.000  -0.000   0.000 -11.742   0.000  -0.000   0.000   0.000   0.000
  0.003   0.000  -0.004   0.000   0.000   0.000   9.954   0.000  -0.000   0.000  -0.000   0.000 -11.756   0.000   0.000   0.000
  0.000   0.000  -0.000   0.000  -0.000   0.000  -0.000   0.000   9.944   0.000   0.000   0.000   0.000   0.000 -11.742   0.000
 total augmentation occupancy for first ion, spin component:           1
  2.578   0.351   0.000   0.011  -0.000   0.000   0.001  -0.000
  0.351   0.074   0.000   0.008  -0.000   0.000  -0.003   0.000
  0.000   0.000   2.135   0.000  -0.000   0.251  -0.000   0.000
  0.011   0.008   0.000   2.118  -0.000   0.000   0.254  -0.000
 -0.000  -0.000  -0.000  -0.000   2.135  -0.000  -0.000   0.251
  0.000   0.000   0.251   0.000  -0.000   0.032   0.000  -0.000
  0.001  -0.003  -0.000   0.254  -0.000   0.000   0.034  -0.000
 -0.000   0.000  -0.000  -0.000   0.251  -0.000  -0.000   0.032


------------------------ aborting loop because EDIFF is reached ----------------------------------------


    CHARGE:  cpu time    0.39: real time    0.39
    FORLOC:  cpu time    0.04: real time    0.04
    FORNL :  cpu time    3.54: real time    3.54
    STRESS:  cpu time    4.49: real time    4.49
    FORCOR:  cpu time    0.14: real time    0.14
    FORHAR:  cpu time    0.06: real time    0.06
    MIXING:  cpu time    0.00: real time    0.00
    OFIELD:  cpu time    0.00: real time    0.00

  FORCE on cell =-STRESS in cart. coord.  units (eV):
  Direction    XX          YY          ZZ          XY          YZ          ZX
  --------------------------------------------------------------------------------------
  Alpha Z   140.40821   140.40821   140.40821
  Ewald   18683.87002 18683.87041-21380.97003    -0.00009     0.00006    -0.00020
  Hartree 20469.36203 20469.36194-19518.18578    -0.00000     0.00000     0.00004
  E(xc)    -424.71118  -424.71119  -424.92221    -0.00000     0.00000     0.00000
  Local  -40401.70191-40401.70144 39648.29991    -0.00012    -0.00005     0.00010
  n-local   -44.68549   -59.20347   -47.70771     3.10229    -1.70322     5.32656
  augment    60.51184    60.51159    59.69900     0.00018    -0.00000     0.00000
  Kinetic  1540.57664  1501.06790  1506.74738    -0.23629    -0.35994     1.60552
  Fock        0.00000     0.00000     0.00000     0.00000     0.00000     0.00000
  -------------------------------------------------------------------------------------
  Total      -3.38296    -3.38295   -16.63124     0.00000     0.00000     0.00000
  in kB     -15.67756   -15.67755   -77.07381     0.00000     0.00000     0.00000
  external pressure =      -36.14 kB  Pullay stress =        0.00 kB


 VOLUME and BASIS-vectors are now :
 -----------------------------------------------------------------------------
  energy-cutoff  :      520.00
  volume of cell :      345.72
      direct lattice vectors                 reciprocal lattice vectors
     2.592201318 -1.496607673  0.000000000     0.385772507  0.000000000  0.000000000
     0.000000000  2.993215347  0.000000000     0.192886253  0.334088892  0.000000000
    -0.000000000  0.000000000 44.557579023     0.000000000  0.000000000  0.022442871

  length of vectors
     2.993216030  2.993215347 44.557579023     0.385772507  0.385772595  0.022442871


 FORCES acting on ions
    electron-ion (+dipol)            ewald-force                    non-local-force                 convergence-correction
 -----------------------------------------------------------------------------------------------
   0.265E-05 -.474E-06 0.137E+04   -.352E-05 0.274E-05 -.138E+04   -.603E-17 0.271E-18 0.110E+01   -.140E-09 0.144E-09 0.429E-01
   0.106E-02 -.184E-02 0.107E+04   0.554E-04 -.959E-04 -.107E+04   0.421E-18 0.000E+00 0.168E-01   -.181E-08 0.291E-08 0.424E-01
   -.410E-08 0.967E-09 0.459E+03   -.508E-07 0.587E-07 -.459E+03   -.439E-19 -.678E-20 0.111E-01   0.393E-09 -.639E-09 0.239E-01
   0.106E-02 -.184E-02 0.153E+03   0.552E-04 -.956E-04 -.153E+03   0.289E-19 -.542E-19 -.236E-02   0.116E-09 -.214E-09 0.942E-02
   0.404E-08 -.960E-09 -.459E+03   0.461E-07 -.534E-07 0.459E+03   0.430E-19 -.678E-20 -.880E-02   -.440E-09 0.733E-09 -.238E-01
   0.106E-02 -.184E-02 -.765E+03   0.553E-04 -.957E-04 0.765E+03   0.709E-19 0.000E+00 -.177E-01   -.213E-08 0.381E-08 -.435E-01
   -.265E-05 0.474E-06 -.137E+04   0.352E-05 -.274E-05 0.138E+04   0.516E-17 0.271E-18 -.110E+01   0.269E-10 0.524E-10 -.470E-01
   -.106E-02 0.184E-02 0.765E+03   -.553E-04 0.957E-04 -.765E+03   -.272E-19 0.271E-19 0.160E-01   0.368E-08 -.655E-08 0.414E-01
   -.106E-02 0.184E-02 -.153E+03   -.552E-04 0.956E-04 0.153E+03   0.141E-19 -.678E-19 0.839E-02   0.432E-09 -.721E-09 -.925E-02
   -.106E-02 0.184E-02 -.107E+04   -.554E-04 0.959E-04 0.107E+04   0.192E-19 -.434E-18 -.257E-01   0.307E-08 -.518E-08 -.487E-01
   0.113E-08 -.221E-07 0.306E+03   0.327E-07 -.364E-07 -.306E+03   -.374E-19 0.108E-18 -.439E-02   -.168E-09 0.316E-09 0.138E-01
   -.282E-07 0.447E-07 -.119E-01   0.824E-08 -.920E-08 0.110E-01   0.483E-21 0.678E-20 -.645E-03   -.126E-10 0.268E-10 -.378E-04
   0.632E-08 0.228E-07 -.306E+03   -.605E-07 0.675E-07 0.306E+03   -.531E-20 -.217E-18 0.710E-02   0.387E-10 -.801E-10 -.151E-01
   0.427E-04 -.739E-04 0.409E+03   -.477E-04 0.826E-04 -.409E+03   -.182E-18 0.000E+00 -.472E-01   -.134E-09 0.299E-09 0.144E-01
   0.423E-04 -.734E-04 0.102E+03   -.475E-04 0.823E-04 -.102E+03   -.330E-20 0.108E-18 -.464E-02   0.708E-10 -.131E-09 0.533E-02
   0.424E-04 -.734E-04 -.204E+03   -.475E-04 0.823E-04 0.204E+03   -.231E-20 0.000E+00 0.309E-02   0.669E-10 -.134E-09 -.107E-01
   0.311E-04 -.394E-04 -.491E+03   -.247E-04 0.266E-04 0.491E+03   0.822E-19 0.000E+00 -.110E+00   -.212E-09 0.384E-09 -.141E-01
   -.311E-04 0.394E-04 0.491E+03   0.247E-04 -.266E-04 -.491E+03   -.355E-17 0.139E-16 0.108E+00   0.195E-09 -.399E-09 0.133E-01
   -.424E-04 0.734E-04 0.204E+03   0.475E-04 -.823E-04 -.204E+03   -.387E-19 0.271E-19 -.268E-02   -.125E-10 0.289E-10 0.104E-01
   -.424E-04 0.734E-04 -.102E+03   0.475E-04 -.822E-04 0.102E+03   -.952E-20 -.542E-19 0.367E-02   -.733E-10 0.132E-09 -.532E-02
   -.426E-04 0.738E-04 -.409E+03   0.477E-04 -.826E-04 0.409E+03   -.373E-19 0.000E+00 0.499E-01   0.247E-09 -.455E-09 -.162E-01
   0.362E-10 -.171E-09 0.985E-03   0.263E-09 -.258E-09 -.286E-02   -.619E-20 0.339E-20 0.349E-03   0.237E-12 -.300E-12 0.165E-02
   -.260E-06 -.304E-07 0.523E+03   0.998E-06 -.936E-06 -.522E+03   0.453E-18 0.278E-16 -.606E+00   0.249E-12 0.763E-12 0.139E-01
   0.148E-04 -.258E-04 0.346E+03   -.298E-05 0.518E-05 -.346E+03   0.530E-19 -.139E-16 -.709E-01   0.732E-11 -.241E-11 0.111E-01
   -.148E-04 0.256E-04 0.173E+03   0.305E-05 -.526E-05 -.172E+03   -.413E-18 0.347E-17 -.276E-01   -.819E-11 0.186E-10 0.766E-02
   0.261E-06 0.300E-07 -.523E+03   -.998E-06 0.936E-06 0.522E+03   -.454E-18 -.555E-16 0.606E+00   -.874E-12 -.220E-11 -.136E-01
   0.148E-04 -.256E-04 -.173E+03   -.305E-05 0.526E-05 0.172E+03   0.196E-18 0.000E+00 0.277E-01   0.102E-10 -.208E-10 -.464E-02
   -.148E-04 0.258E-04 -.346E+03   0.298E-05 -.518E-05 0.346E+03   -.139E-16 0.000E+00 0.705E-01   -.958E-11 0.916E-11 -.928E-02
 -----------------------------------------------------------------------------------------------
   -.890E-07 0.165E-06 0.422E-02   0.834E-13 -.348E-14 -.853E-12   -.182E-16 -.243E-16 0.407E-02   0.320E-08 -.565E-08 -.964E-02
 
 
 POSITION                                       TOTAL-FORCE (eV/Angst)
 -----------------------------------------------------------------------------------
     -0.00000     -0.00000     12.05444         0.000000      0.000000     -0.004071
      0.86407      1.49661     14.56384         0.000000     -0.000000     -0.006276
     -0.00000     -0.00000     19.58971        -0.000000      0.000000      0.008253
      0.86407      1.49661     22.10509        -0.000000      0.000000      0.001256
     -0.00000     -0.00000     27.13500         0.000000      0.000000     -0.006907
      0.86407      1.49661     29.64947        -0.000000     -0.000000     -0.015590
     -0.00000     -0.00000     34.67051        -0.000000      0.000000      0.005392
      1.72814     -0.00000     17.07536        -0.000000      0.000000      0.014051
      1.72814     -0.00000     24.61954         0.000000     -0.000000      0.002042
      1.72814     -0.00000     32.16132        -0.000000      0.000000     -0.000355
     -0.00000     -0.00000     15.81993        -0.000000      0.000000      0.006531
     -0.00000     -0.00000     23.36240         0.000000      0.000000     -0.001510
     -0.00000     -0.00000     30.90476         0.000000      0.000000     -0.002128
      1.72814     -0.00000     13.30813        -0.000000      0.000000      0.013649
      1.72814     -0.00000     20.84786         0.000000      0.000000     -0.006051
      1.72814     -0.00000     28.39182         0.000000      0.000000     -0.002691
      1.72814     -0.00000     35.96933         0.000000      0.000000     -0.002401
      0.86407      1.49661     10.75590         0.000000      0.000000     -0.000996
      0.86407      1.49661     18.33292        -0.000000      0.000000      0.003046
      0.86407      1.49661     25.87694        -0.000000      0.000000      0.003715
      0.86407      1.49661     33.41666         0.000000      0.000000     -0.009514
     -0.00000     -0.00000      1.08367         0.000000      0.000000      0.000177
     -0.00000     -0.00000      8.20247        -0.000000      0.000000      0.003243
      1.72814     -0.00000      5.82012        -0.000000      0.000000      0.002020
      0.86407      1.49661      3.44789        -0.000000      0.000000      0.004566
     -0.00000     -0.00000     38.52260         0.000000      0.000000     -0.002902
      1.72814     -0.00000     43.27709         0.000000     -0.000000     -0.004490
      0.86407      1.49661     40.90494         0.000000     -0.000000     -0.002059
 -----------------------------------------------------------------------------------
    total drift:                               -0.000000      0.000000     -0.001352


--------------------------------------------------------------------------------------------------------



  FREE ENERGIE OF THE ION-ELECTRON SYSTEM (eV)
  ---------------------------------------------------
  free  energy   TOTEN  =      -145.51875017 eV

  energy  without entropy=     -145.51318458  energy(sigma->0) =     -145.51596738
 
 d Force = 0.4532924E-04[ 0.373E-04, 0.533E-04]  d Energy = 0.3663700E-04 0.869E-05
 d Force =-0.1593522E+01[-0.159E+01,-0.159E+01]  d Ewald  =-0.1593522E+01-0.175E-08


--------------------------------------------------------------------------------------------------------


    POTLOK:  cpu time    0.21: real time    0.21


--------------------------------------------------------------------------------------------------------


 Conjugate gradient step on ions:
 trial-energy change:   -0.000037  1 .order   -0.000045   -0.000053   -0.000037
  (g-gl).g = 0.791E-04      g.g   = 0.935E-04  gl.gl    = 0.521E-03
 g(Force)  = 0.935E-04   g(Stress)= 0.000E+00 ortho     = 0.105E-04
 gamma     =   0.15190
 trial     =   0.56056
 opt step  =   1.86731  (harmonic =   1.86731) maximal distance =0.00175731
 next E    =  -145.518802   (d E  =  -0.00009)


--------------------------------------------------------------------------------------------------------


  
 reached required accuracy - stopping structural energy minimisation
     LOOP+:  cpu time   34.73: real time   34.77
    4ORBIT:  cpu time    0.00: real time    0.00

 total amount of memory used by VASP on root node   154808. kBytes
========================================================================

   base      :      30000. kBytes
   nonl-proj :      16562. kBytes
   fftplans  :      57934. kBytes
   grid      :      23224. kBytes
   one-center:         56. kBytes
   wavefun   :      27032. kBytes
 
  
  
 General timing and accounting informations for this job:
 ========================================================
  
                  Total CPU time used (sec):     1694.972
                            User time (sec):     1672.416
                          System time (sec):       22.556
                         Elapsed time (sec):     1697.106
  
                   Maximum memory used (kb):      261424.
                   Average memory used (kb):           0.
  
                          Minor page faults:       443961
                          Major page faults:            0
                 Voluntary context switches:          263
