       N       E                     dE             d eps       ncg     rms          rms(c)
DAV:   1     0.482631444987E+03    0.48263E+03   -0.40671E+04  6108   0.131E+03
DAV:   2    -0.854044761385E+02   -0.56804E+03   -0.53615E+03  7942   0.246E+02
DAV:   3    -0.145732532259E+03   -0.60328E+02   -0.59928E+02  7104   0.867E+01
DAV:   4    -0.146571297391E+03   -0.83877E+00   -0.83698E+00  7160   0.111E+01
DAV:   5    -0.146584746404E+03   -0.13449E-01   -0.13443E-01  7152   0.138E+00    0.220E+01
DAV:   6    -0.132124598677E+03    0.14460E+02   -0.83669E+01  7302   0.289E+01    0.750E+00
DAV:   7    -0.132040292017E+03    0.84307E-01   -0.20917E+00  6664   0.520E+00    0.461E+00
DAV:   8    -0.131937929978E+03    0.10236E+00   -0.57039E-01  6968   0.410E+00    0.960E-01
DAV:   9    -0.131919971482E+03    0.17958E-01   -0.69631E-02  7078   0.123E+00    0.499E-01
DAV:  10    -0.131922044992E+03   -0.20735E-02   -0.78614E-02  6992   0.120E+00    0.347E-01
DAV:  11    -0.131920561048E+03    0.14839E-02   -0.59976E-03  7916   0.446E-01    0.237E-01
DAV:  12    -0.131920098732E+03    0.46232E-03   -0.82440E-03  7104   0.455E-01    0.934E-02
DAV:  13    -0.131920104799E+03   -0.60668E-05   -0.21246E-03  7058   0.211E-01    0.802E-02
DAV:  14    -0.131919981146E+03    0.12365E-03   -0.38225E-04  6862   0.945E-02    0.388E-02
DAV:  15    -0.131919936414E+03    0.44731E-04   -0.23031E-04  6756   0.662E-02    0.982E-03
DAV:  16    -0.131919897838E+03    0.38576E-04   -0.10535E-04  7012   0.703E-02    0.343E-02
DAV:  17    -0.131919810558E+03    0.87279E-04   -0.48204E-05  6912   0.116E-01    0.195E-02
DAV:  18    -0.131919717526E+03    0.93033E-04   -0.56670E-04 10244   0.326E-01    0.343E-02
DAV:  19    -0.131919702917E+03    0.14608E-04   -0.36208E-04  7118   0.123E-01    0.318E-02
DAV:  20    -0.131919686249E+03    0.16668E-04   -0.12269E-04  6584   0.506E-02    0.159E-02
DAV:  21    -0.131919682634E+03    0.36148E-05   -0.21908E-05  4554   0.199E-02
   1 F= -.13191968E+03 E0= -.13191652E+03  d E =-.131920E+03
       N       E                     dE             d eps       ncg     rms          rms(c)
DAV:   1    -0.131920455674E+03   -0.76943E-03   -0.18305E-02  6322   0.607E-01    0.247E-02
DAV:   2    -0.131920497786E+03   -0.42111E-04   -0.70960E-04  7008   0.115E-01    0.228E-02
DAV:   3    -0.131920487713E+03    0.10073E-04   -0.29136E-05  5802   0.290E-02    0.171E-02
DAV:   4    -0.131920478269E+03    0.94435E-05   -0.30225E-05  5536   0.270E-02    0.639E-03
DAV:   5    -0.131920472689E+03    0.55804E-05   -0.81258E-06  4330   0.243E-02    0.519E-03
DAV:   6    -0.131920469299E+03    0.33895E-05   -0.71302E-06  4324   0.242E-02
   2 F= -.13192047E+03 E0= -.13191726E+03  d E =-.786665E-03
       N       E                     dE             d eps       ncg     rms          rms(c)
DAV:   1    -0.131921047721E+03   -0.57503E-03   -0.76633E-02  6112   0.124E+00    0.511E-02
DAV:   2    -0.131921204874E+03   -0.15715E-03   -0.28583E-03  7022   0.231E-01    0.437E-02
DAV:   3    -0.131921160854E+03    0.44019E-04   -0.12735E-04  6992   0.605E-02    0.321E-02
DAV:   4    -0.131921119041E+03    0.41813E-04   -0.97514E-05  6724   0.517E-02    0.133E-02
DAV:   5    -0.131921083896E+03    0.35145E-04   -0.39659E-05  6688   0.586E-02    0.108E-02
DAV:   6    -0.131921061641E+03    0.22255E-04   -0.32010E-05  6184   0.576E-02    0.848E-03
DAV:   7    -0.131921048518E+03    0.13124E-04   -0.29105E-05  5662   0.435E-02    0.667E-03
DAV:   8    -0.131921027921E+03    0.20596E-04   -0.73111E-06  4196   0.550E-02    0.548E-03
DAV:   9    -0.131921010699E+03    0.17222E-04   -0.18499E-05  5012   0.626E-02    0.613E-03
DAV:  10    -0.131921007243E+03    0.34565E-05   -0.27060E-05  5246   0.337E-02
   3 F= -.13192101E+03 E0= -.13191766E+03  d E =-.132461E-02
       N       E                     dE             d eps       ncg     rms          rms(c)
DAV:   1    -0.131921408018E+03   -0.39732E-03   -0.33660E-02  6184   0.802E-01    0.231E-02
DAV:   2    -0.131921474896E+03   -0.66878E-04   -0.78068E-04  6806   0.111E-01    0.140E-02
DAV:   3    -0.131921469197E+03    0.56989E-05   -0.11562E-05  4408   0.205E-02    0.946E-03
DAV:   4    -0.131921463648E+03    0.55492E-05   -0.75303E-06  4034   0.213E-02    0.396E-03
DAV:   5    -0.131921461199E+03    0.24489E-05   -0.70931E-06  3888   0.200E-02    0.317E-03
DAV:   6    -0.131921460664E+03    0.53563E-06   -0.54807E-06  3714   0.115E-02
   4 F= -.13192146E+03 E0= -.13191809E+03  d E =-.453421E-03
       N       E                     dE             d eps       ncg     rms          rms(c)
DAV:   1    -0.131921966093E+03   -0.50489E-03   -0.30256E-01  6076   0.241E+00    0.712E-02
DAV:   2    -0.131922584157E+03   -0.61806E-03   -0.70334E-03  6794   0.335E-01    0.410E-02
DAV:   3    -0.131922542119E+03    0.42038E-04   -0.10206E-04  7146   0.550E-02    0.282E-02
DAV:   4    -0.131922507417E+03    0.34702E-04   -0.66707E-05  6774   0.481E-02    0.118E-02
DAV:   5    -0.131922496119E+03    0.11297E-04   -0.29152E-05  5564   0.424E-02    0.817E-03
DAV:   6    -0.131922490224E+03    0.58957E-05   -0.23094E-05  5244   0.384E-02
   5 F= -.13192249E+03 E0= -.13191903E+03  d E =-.148298E-02
       N       E                     dE             d eps       ncg     rms          rms(c)
DAV:   1    -0.131920838384E+03    0.16577E-02   -0.12104E+00  6076   0.482E+00    0.142E-01
DAV:   2    -0.131923323682E+03   -0.24853E-02   -0.28271E-02  6794   0.673E-01    0.831E-02
DAV:   3    -0.131923150970E+03    0.17271E-03   -0.40546E-04  7206   0.110E-01    0.570E-02
DAV:   4    -0.131923005975E+03    0.14499E-03   -0.27942E-04  7114   0.994E-02    0.235E-02
DAV:   5    -0.131922962554E+03    0.43421E-04   -0.12939E-04  7394   0.848E-02    0.162E-02
DAV:   6    -0.131922938242E+03    0.24312E-04   -0.79985E-05  6602   0.741E-02    0.102E-02
DAV:   7    -0.131922922794E+03    0.15448E-04   -0.31063E-05  5732   0.540E-02    0.916E-03
DAV:   8    -0.131922906303E+03    0.16491E-04   -0.83527E-06  4482   0.466E-02    0.446E-03
DAV:   9    -0.131922892556E+03    0.13747E-04   -0.18464E-05  5228   0.611E-02    0.566E-03
DAV:  10    -0.131922887746E+03    0.48103E-05   -0.24749E-05  5554   0.501E-02
   6 F= -.13192289E+03 E0= -.13191924E+03  d E =-.188050E-02
       N       E                     dE             d eps       ncg     rms          rms(c)
DAV:   1    -0.131922788612E+03    0.10394E-03   -0.11882E-01  6106   0.151E+00    0.458E-02
DAV:   2    -0.131923027336E+03   -0.23872E-03   -0.27387E-03  6794   0.212E-01    0.253E-02
DAV:   3    -0.131923011906E+03    0.15430E-04   -0.50499E-05  6942   0.370E-02    0.174E-02
DAV:   4    -0.131923001056E+03    0.10850E-04   -0.18819E-05  4124   0.245E-02    0.833E-03
DAV:   5    -0.131922995907E+03    0.51493E-05   -0.11793E-05  4202   0.275E-02    0.502E-03
DAV:   6    -0.131922994710E+03    0.11968E-05   -0.11102E-05  4040   0.212E-02
   7 F= -.13192299E+03 E0= -.13191939E+03  d E =-.198747E-02
       N       E                     dE             d eps       ncg     rms          rms(c)
DAV:   1    -0.131923456053E+03   -0.46015E-03   -0.97383E-02  6252   0.136E+00    0.376E-02
DAV:   2    -0.131923651027E+03   -0.19497E-03   -0.21571E-03  6650   0.185E-01    0.222E-02
DAV:   3    -0.131923638732E+03    0.12296E-04   -0.21924E-05  5370   0.246E-02    0.158E-02
DAV:   4    -0.131923627870E+03    0.10861E-04   -0.26425E-05  5632   0.342E-02    0.524E-03
DAV:   5    -0.131923626941E+03    0.92949E-06   -0.15019E-05  3996   0.198E-02    0.508E-03
DAV:   6    -0.131923626108E+03    0.83247E-06   -0.35888E-06  3596   0.101E-02
   8 F= -.13192363E+03 E0= -.13192001E+03  d E =-.631399E-03
       N       E                     dE             d eps       ncg     rms          rms(c)
DAV:   1    -0.131923614476E+03    0.12465E-04   -0.87671E-01  6284   0.410E+00    0.115E-01
DAV:   2    -0.131925409548E+03   -0.17951E-02   -0.19593E-02  6574   0.555E-01    0.667E-02
DAV:   3    -0.131925299923E+03    0.10962E-03   -0.18059E-04  7172   0.706E-02    0.463E-02
DAV:   4    -0.131925209975E+03    0.89948E-04   -0.26653E-04  7068   0.101E-01    0.148E-02
DAV:   5    -0.131925206434E+03    0.35409E-05   -0.11614E-04  6732   0.484E-02    0.150E-02
DAV:   6    -0.131925199025E+03    0.74093E-05   -0.21446E-05  4474   0.224E-02
   9 F= -.13192520E+03 E0= -.13192153E+03  d E =-.220432E-02
       N       E                     dE             d eps       ncg     rms          rms(c)
DAV:   1    -0.131920525662E+03    0.46808E-02   -0.35077E+00  6292   0.820E+00    0.229E-01
DAV:   2    -0.131927742867E+03   -0.72172E-02   -0.78781E-02  6576   0.111E+00    0.136E-01
DAV:   3    -0.131927283970E+03    0.45890E-03   -0.71122E-04  7142   0.141E-01    0.930E-02
DAV:   4    -0.131926896240E+03    0.38773E-03   -0.10424E-03  7074   0.201E-01    0.288E-02
DAV:   5    -0.131926874733E+03    0.21506E-04   -0.47058E-04  6936   0.993E-02    0.272E-02
DAV:   6    -0.131926841497E+03    0.33237E-04   -0.80223E-05  6836   0.438E-02    0.125E-02
DAV:   7    -0.131926786855E+03    0.54641E-04   -0.26427E-05  5292   0.579E-02    0.932E-03
DAV:   8    -0.131926758478E+03    0.28377E-04   -0.20848E-05  5292   0.411E-02    0.104E-02
DAV:   9    -0.131926712020E+03    0.46459E-04   -0.63241E-05  7164   0.853E-02    0.992E-03
DAV:  10    -0.131926667219E+03    0.44800E-04   -0.36042E-05  6442   0.930E-02    0.121E-02
DAV:  11    -0.131926632318E+03    0.34901E-04   -0.50253E-05  7058   0.970E-02    0.633E-03
DAV:  12    -0.131926614165E+03    0.18153E-04   -0.42878E-05  6454   0.102E-01    0.955E-03
DAV:  13    -0.131926613541E+03    0.62424E-06   -0.85980E-05  6008   0.562E-02
  10 F= -.13192661E+03 E0= -.13192293E+03  d E =-.361883E-02
       N       E                     dE             d eps       ncg     rms          rms(c)
DAV:   1    -0.131927604071E+03   -0.98991E-03   -0.38615E-01  6144   0.271E+00    0.811E-02
DAV:   2    -0.131928360903E+03   -0.75683E-03   -0.86605E-03  6726   0.376E-01    0.443E-02
DAV:   3    -0.131928326304E+03    0.34598E-04   -0.13657E-04  7150   0.547E-02    0.328E-02
DAV:   4    -0.131928302920E+03    0.23385E-04   -0.12457E-04  6894   0.593E-02    0.139E-02
DAV:   5    -0.131928302577E+03    0.34265E-06   -0.37710E-05  5624   0.289E-02    0.145E-02
DAV:   6    -0.131928298627E+03    0.39505E-05   -0.19334E-05  4452   0.269E-02
  11 F= -.13192830E+03 E0= -.13192459E+03  d E =-.168509E-02
       N       E                     dE             d eps       ncg     rms          rms(c)
DAV:   1    -0.131925260660E+03    0.30419E-02   -0.34703E+00  6132   0.813E+00    0.239E-01
DAV:   2    -0.131932175471E+03   -0.69148E-02   -0.78187E-02  6720   0.112E+00    0.135E-01
DAV:   3    -0.131931830397E+03    0.34507E-03   -0.10609E-03  7162   0.159E-01    0.975E-02
DAV:   4    -0.131931596441E+03    0.23396E-03   -0.13044E-03  7172   0.195E-01    0.419E-02
DAV:   5    -0.131931587536E+03    0.89053E-05   -0.35539E-04  6860   0.943E-02    0.453E-02
DAV:   6    -0.131931545792E+03    0.41744E-04   -0.20561E-04  6656   0.793E-02    0.171E-02
DAV:   7    -0.131931529175E+03    0.16617E-04   -0.53405E-05  6496   0.521E-02    0.115E-02
DAV:   8    -0.131931508282E+03    0.20893E-04   -0.84577E-06  3940   0.435E-02    0.674E-03
DAV:   9    -0.131931478045E+03    0.30237E-04   -0.16776E-05  4892   0.655E-02    0.499E-03
DAV:  10    -0.131931454459E+03    0.23586E-04   -0.27620E-05  5540   0.651E-02    0.985E-03
DAV:  11    -0.131931413829E+03    0.40630E-04   -0.33040E-05  6072   0.135E-01    0.530E-03
DAV:  12    -0.131931404622E+03    0.92070E-05   -0.85889E-05  7288   0.106E-01
  12 F= -.13193140E+03 E0= -.13192762E+03  d E =-.479108E-02
       N       E                     dE             d eps       ncg     rms          rms(c)
DAV:   1    -0.131930362979E+03    0.10508E-02   -0.84015E-01  6116   0.402E+00    0.115E-01
DAV:   2    -0.131932030225E+03   -0.16672E-02   -0.18719E-02  6732   0.556E-01    0.666E-02
DAV:   3    -0.131931947008E+03    0.83216E-04   -0.22486E-04  7168   0.740E-02    0.480E-02
DAV:   4    -0.131931895120E+03    0.51889E-04   -0.42198E-04  7202   0.110E-01    0.237E-02
DAV:   5    -0.131931894909E+03    0.21051E-06   -0.98364E-05  6332   0.474E-02    0.253E-02
DAV:   6    -0.131931885480E+03    0.94292E-05   -0.45512E-05  5696   0.339E-02
  13 F= -.13193189E+03 E0= -.13192808E+03  d E =-.527194E-02
       N       E                     dE             d eps       ncg     rms          rms(c)
DAV:   1    -0.131932475967E+03   -0.58106E-03   -0.56093E-01  6156   0.329E+00    0.961E-02
DAV:   2    -0.131933622623E+03   -0.11467E-02   -0.12697E-02  6668   0.456E-01    0.514E-02
DAV:   3    -0.131933569344E+03    0.53279E-04   -0.13972E-04  7240   0.540E-02    0.358E-02
DAV:   4    -0.131933534132E+03    0.35212E-04   -0.17085E-04  7242   0.737E-02    0.133E-02
DAV:   5    -0.131933537414E+03   -0.32823E-05   -0.56981E-05  6146   0.320E-02    0.152E-02
DAV:   6    -0.131933534968E+03    0.24456E-05   -0.11389E-05  3602   0.171E-02
  14 F= -.13193353E+03 E0= -.13192971E+03  d E =-.164949E-02
       N       E                     dE             d eps       ncg     rms          rms(c)
DAV:   1    -0.131927935816E+03    0.56016E-02   -0.50425E+00  6156   0.986E+00    0.283E-01
DAV:   2    -0.131938216333E+03   -0.10281E-01   -0.11366E-01  6634   0.136E+00    0.158E-01
DAV:   3    -0.131937704479E+03    0.51185E-03   -0.12278E-03  7248   0.163E-01    0.108E-01
DAV:   4    -0.131937329905E+03    0.37457E-03   -0.13866E-03  7234   0.230E-01    0.368E-02
DAV:   5    -0.131937360906E+03   -0.31001E-04   -0.63762E-04  6922   0.113E-01    0.419E-02
DAV:   6    -0.131937340103E+03    0.20803E-04   -0.94390E-05  6344   0.441E-02    0.232E-02
DAV:   7    -0.131937326125E+03    0.13977E-04   -0.55557E-05  6568   0.362E-02    0.103E-02
DAV:   8    -0.131937319022E+03    0.71038E-05   -0.16242E-05  4482   0.328E-02
  15 F= -.13193732E+03 E0= -.13193346E+03  d E =-.543354E-02
       N       E                     dE             d eps       ncg     rms          rms(c)
DAV:   1    -0.131901131234E+03    0.36195E-01   -0.20146E+01  6156   0.197E+01    0.570E-01
DAV:   2    -0.131943191228E+03   -0.42060E-01   -0.46482E-01  6640   0.273E+00    0.331E-01
DAV:   3    -0.131940969362E+03    0.22219E-02   -0.52011E-03  7146   0.330E-01    0.221E-01
DAV:   4    -0.131939352422E+03    0.16169E-02   -0.49945E-03  7282   0.429E-01    0.746E-02
DAV:   5    -0.131939391625E+03   -0.39204E-04   -0.23312E-03  7050   0.228E-01    0.691E-02
DAV:   6    -0.131939313481E+03    0.78145E-04   -0.38126E-04  6684   0.914E-02    0.350E-02
DAV:   7    -0.131939228014E+03    0.85467E-04   -0.97134E-05  7072   0.803E-02    0.151E-02
DAV:   8    -0.131939188645E+03    0.39369E-04   -0.39681E-05  6502   0.535E-02    0.136E-02
DAV:   9    -0.131939116030E+03    0.72615E-04   -0.56324E-05  7220   0.108E-01    0.985E-03
DAV:  10    -0.131939063418E+03    0.52612E-04   -0.59982E-05  7036   0.865E-02    0.144E-02
DAV:  11    -0.131939012590E+03    0.50828E-04   -0.49089E-05  6156   0.619E-02    0.101E-02
DAV:  12    -0.131938901485E+03    0.11111E-03   -0.14896E-04  8572   0.227E-01    0.260E-02
DAV:  13    -0.131938857735E+03    0.43750E-04   -0.19032E-04  8548   0.166E-01    0.129E-02
DAV:  14    -0.131938864422E+03   -0.66873E-05   -0.22383E-04  6548   0.919E-02    0.105E-02
DAV:  15    -0.131938865595E+03   -0.11727E-05   -0.57195E-05  5998   0.300E-02
  16 F= -.13193887E+03 E0= -.13193502E+03  d E =-.698011E-02
       N       E                     dE             d eps       ncg     rms          rms(c)
DAV:   1    -0.131935688004E+03    0.31764E-02   -0.19208E+00  6156   0.602E+00    0.176E-01
DAV:   2    -0.131939588617E+03   -0.39006E-02   -0.43182E-02  6666   0.827E-01    0.959E-02
DAV:   3    -0.131939393170E+03    0.19545E-03   -0.46035E-04  7260   0.100E-01    0.670E-02
DAV:   4    -0.131939247266E+03    0.14590E-03   -0.50660E-04  7272   0.143E-01    0.221E-02
DAV:   5    -0.131939259454E+03   -0.12188E-04   -0.25695E-04  6908   0.703E-02    0.275E-02
DAV:   6    -0.131939249262E+03    0.10192E-04   -0.37808E-05  5452   0.285E-02    0.150E-02
DAV:   7    -0.131939243223E+03    0.60392E-05   -0.24234E-05  4652   0.220E-02
  17 F= -.13193924E+03 E0= -.13193540E+03  d E =-.735774E-02
       N       E                     dE             d eps       ncg     rms          rms(c)
DAV:   1    -0.131939752551E+03   -0.50329E-03   -0.57380E-01  6172   0.332E+00    0.999E-02
DAV:   2    -0.131940916754E+03   -0.11642E-02   -0.13231E-02  6700   0.463E-01    0.514E-02
DAV:   3    -0.131940869515E+03    0.47239E-04   -0.22562E-04  7288   0.636E-02    0.365E-02
DAV:   4    -0.131940837481E+03    0.32035E-04   -0.81773E-05  6626   0.470E-02    0.170E-02
DAV:   5    -0.131940831017E+03    0.64640E-05   -0.46015E-05  6508   0.375E-02    0.122E-02
DAV:   6    -0.131940828237E+03    0.27794E-05   -0.21062E-05  4296   0.291E-02
  18 F= -.13194083E+03 E0= -.13193700E+03  d E =-.158501E-02
       N       E                     dE             d eps       ncg     rms          rms(c)
DAV:   1    -0.131935035549E+03    0.57955E-02   -0.51679E+00  6172   0.999E+00    0.296E-01
DAV:   2    -0.131945742714E+03   -0.10707E-01   -0.11992E-01  6626   0.138E+00    0.157E-01
DAV:   3    -0.131945271504E+03    0.47121E-03   -0.15486E-03  7246   0.172E-01    0.107E-01
DAV:   4    -0.131944976037E+03    0.29547E-03   -0.86666E-04  7194   0.161E-01    0.410E-02
DAV:   5    -0.131944981229E+03   -0.51923E-05   -0.43106E-04  7064   0.926E-02    0.335E-02
DAV:   6    -0.131944973229E+03    0.80003E-05   -0.10389E-04  6664   0.502E-02    0.195E-02
DAV:   7    -0.131944971861E+03    0.13683E-05   -0.54439E-05  6454   0.358E-02
  19 F= -.13194497E+03 E0= -.13194118E+03  d E =-.572864E-02
       N       E                     dE             d eps       ncg     rms          rms(c)
DAV:   1    -0.131909804897E+03    0.35168E-01   -0.20664E+01  6132   0.200E+01    0.597E-01
DAV:   2    -0.131953514200E+03   -0.43709E-01   -0.49153E-01  6620   0.280E+00    0.331E-01
DAV:   3    -0.131951424102E+03    0.20901E-02   -0.66489E-03  7210   0.355E-01    0.217E-01
DAV:   4    -0.131950224078E+03    0.12000E-02   -0.31549E-03  7056   0.305E-01    0.857E-02
DAV:   5    -0.131950203218E+03    0.20860E-04   -0.16895E-03  7182   0.184E-01    0.567E-02
DAV:   6    -0.131950191808E+03    0.11410E-04   -0.34183E-04  7072   0.873E-02    0.370E-02
DAV:   7    -0.131950187190E+03    0.46182E-05   -0.14930E-04  6884   0.558E-02    0.215E-02
DAV:   8    -0.131950179032E+03    0.81573E-05   -0.19836E-05  4354   0.314E-02
  20 F= -.13195018E+03 E0= -.13194647E+03  d E =-.109358E-01
       N       E                     dE             d eps       ncg     rms          rms(c)
DAV:   1    -0.131775590959E+03    0.17460E+00   -0.82477E+01  6156   0.401E+01    0.126E+00
DAV:   2    -0.131963020767E+03   -0.18743E+00   -0.21328E+00  6578   0.580E+00    0.772E-01
DAV:   3    -0.131952259791E+03    0.10761E-01   -0.32447E-02  7082   0.783E-01    0.465E-01
DAV:   4    -0.131946795551E+03    0.54642E-02   -0.13794E-02  7060   0.604E-01    0.180E-01
DAV:   5    -0.131946606168E+03    0.18938E-03   -0.62124E-03  7132   0.351E-01    0.899E-02
DAV:   6    -0.131946643998E+03   -0.37830E-04   -0.10462E-03  7150   0.146E-01    0.631E-02
DAV:   7    -0.131946609104E+03    0.34894E-04   -0.19838E-04  6942   0.590E-02    0.353E-02
DAV:   8    -0.131946578630E+03    0.30474E-04   -0.46754E-05  6244   0.521E-02    0.154E-02
DAV:   9    -0.131946565102E+03    0.13528E-04   -0.45578E-05  6780   0.541E-02    0.809E-03
DAV:  10    -0.131946563953E+03    0.11485E-05   -0.28282E-05  5058   0.272E-02
  21 F= -.13194656E+03 E0= -.13194312E+03  d E =-.732073E-02
       N       E                     dE             d eps       ncg     rms          rms(c)
DAV:   1    -0.131872433293E+03    0.74132E-01   -0.40765E+01  6108   0.279E+01    0.862E-01
DAV:   2    -0.131957952897E+03   -0.85520E-01   -0.98479E-01  6582   0.398E+00    0.476E-01
DAV:   3    -0.131953755352E+03    0.41975E-02   -0.16209E-02  7056   0.538E-01    0.326E-01
DAV:   4    -0.131951476023E+03    0.22793E-02   -0.81782E-03  7122   0.459E-01    0.143E-01
DAV:   5    -0.131951220544E+03    0.25548E-03   -0.32965E-03  6936   0.266E-01    0.942E-02
DAV:   6    -0.131951172387E+03    0.48156E-04   -0.10544E-03  7142   0.159E-01    0.518E-02
DAV:   7    -0.131951168553E+03    0.38349E-05   -0.31407E-04  6866   0.754E-02    0.308E-02
DAV:   8    -0.131951152532E+03    0.16020E-04   -0.48481E-05  6474   0.462E-02    0.155E-02
DAV:   9    -0.131951148350E+03    0.41819E-05   -0.57530E-05  6268   0.409E-02
  22 F= -.13195115E+03 E0= -.13194747E+03  d E =-.119051E-01
       N       E                     dE             d eps       ncg     rms          rms(c)
DAV:   1    -0.131944960629E+03    0.61919E-02   -0.67742E+00  6100   0.115E+01    0.343E-01
DAV:   2    -0.131958963042E+03   -0.14002E-01   -0.16033E-01  6666   0.162E+00    0.186E-01
DAV:   3    -0.131958298646E+03    0.66440E-03   -0.24013E-03  7230   0.217E-01    0.126E-01
DAV:   4    -0.131957911916E+03    0.38673E-03   -0.98462E-04  7144   0.177E-01    0.549E-02
DAV:   5    -0.131957869719E+03    0.42196E-04   -0.58314E-04  7024   0.120E-01    0.332E-02
DAV:   6    -0.131957867035E+03    0.26846E-05   -0.17657E-04  6966   0.623E-02    0.227E-02
DAV:   7    -0.131957862292E+03    0.47427E-05   -0.56323E-05  6500   0.313E-02
  23 F= -.13195786E+03 E0= -.13195431E+03  d E =-.671394E-02
       N       E                     dE             d eps       ncg     rms          rms(c)
DAV:   1    -0.131934913450E+03    0.22954E-01   -0.15359E+01  6076   0.174E+01    0.523E-01
DAV:   2    -0.131967083559E+03   -0.32170E-01   -0.36745E-01  6674   0.245E+00    0.287E-01
DAV:   3    -0.131965511785E+03    0.15718E-02   -0.52630E-03  7218   0.325E-01    0.190E-01
DAV:   4    -0.131964601610E+03    0.91017E-03   -0.22647E-03  7116   0.269E-01    0.788E-02
DAV:   5    -0.131964534431E+03    0.67179E-04   -0.12519E-03  7052   0.173E-01    0.461E-02
DAV:   6    -0.131964530962E+03    0.34690E-05   -0.35640E-04  6998   0.903E-02    0.307E-02
DAV:   7    -0.131964520795E+03    0.10167E-04   -0.73853E-05  6834   0.361E-02    0.198E-02
DAV:   8    -0.131964508479E+03    0.12316E-04   -0.79450E-06  4224   0.315E-02    0.101E-02
DAV:   9    -0.131964502432E+03    0.60464E-05   -0.32482E-05  6054   0.437E-02
  24 F= -.13196450E+03 E0= -.13196126E+03  d E =-.133541E-01
       N       E                     dE             d eps       ncg     rms          rms(c)
DAV:   1    -0.131838132311E+03    0.12638E+00   -0.61330E+01  6076   0.347E+01    0.108E+00
DAV:   2    -0.131975115510E+03   -0.13698E+00   -0.15552E+00  6658   0.500E+00    0.648E-01
DAV:   3    -0.131967503736E+03    0.76118E-02   -0.22812E-02  7120   0.676E-01    0.400E-01
DAV:   4    -0.131963459574E+03    0.40442E-02   -0.94065E-03  6930   0.511E-01    0.162E-01
DAV:   5    -0.131963152339E+03    0.30724E-03   -0.45370E-03  6968   0.322E-01    0.715E-02
DAV:   6    -0.131963195983E+03   -0.43645E-04   -0.10404E-03  7126   0.155E-01    0.529E-02
DAV:   7    -0.131963152724E+03    0.43259E-04   -0.10829E-04  6892   0.568E-02    0.281E-02
DAV:   8    -0.131963122446E+03    0.30278E-04   -0.73427E-05  6872   0.632E-02    0.117E-02
DAV:   9    -0.131963112394E+03    0.10052E-04   -0.32323E-05  6036   0.401E-02    0.912E-03
DAV:  10    -0.131963105071E+03    0.73226E-05   -0.21540E-05  5164   0.347E-02
  25 F= -.13196311E+03 E0= -.13196008E+03  d E =-.119567E-01
       N       E                     dE             d eps       ncg     rms          rms(c)
DAV:   1    -0.131927378912E+03    0.35733E-01   -0.20392E+01  6076   0.199E+01    0.611E-01
DAV:   2    -0.131969787065E+03   -0.42408E-01   -0.48504E-01  6666   0.283E+00    0.326E-01
DAV:   3    -0.131967816476E+03    0.19706E-02   -0.72137E-03  7164   0.380E-01    0.228E-01
DAV:   4    -0.131966613397E+03    0.12031E-02   -0.45229E-03  7090   0.361E-01    0.953E-02
DAV:   5    -0.131966553516E+03    0.59881E-04   -0.16348E-03  6962   0.192E-01    0.717E-02
DAV:   6    -0.131966512997E+03    0.40519E-04   -0.79451E-04  6984   0.136E-01    0.334E-02
DAV:   7    -0.131966511852E+03    0.11449E-05   -0.13494E-04  6758   0.454E-02    0.269E-02
DAV:   8    -0.131966494894E+03    0.16958E-04   -0.32366E-05  5996   0.387E-02    0.916E-03
DAV:   9    -0.131966493870E+03    0.10238E-05   -0.38902E-05  6110   0.336E-02
  26 F= -.13196649E+03 E0= -.13196353E+03  d E =-.153455E-01
       N       E                     dE             d eps       ncg     rms          rms(c)
DAV:   1    -0.131958935827E+03    0.75591E-02   -0.77624E+00  6180   0.123E+01    0.367E-01
DAV:   2    -0.131975204526E+03   -0.16269E-01   -0.18188E-01  6678   0.172E+00    0.203E-01
DAV:   3    -0.131974376137E+03    0.82839E-03   -0.21236E-03  7222   0.210E-01    0.134E-01
DAV:   4    -0.131973874452E+03    0.50169E-03   -0.15862E-03  6980   0.208E-01    0.462E-02
DAV:   5    -0.131973887313E+03   -0.12862E-04   -0.58736E-04  7008   0.109E-01    0.328E-02
DAV:   6    -0.131973882641E+03    0.46720E-05   -0.13483E-04  6512   0.551E-02    0.174E-02
DAV:   7    -0.131973877058E+03    0.55836E-05   -0.15557E-05  4496   0.226E-02
  27 F= -.13197388E+03 E0= -.13197096E+03  d E =-.738319E-02
       N       E                     dE             d eps       ncg     rms          rms(c)
DAV:   1    -0.131903925914E+03    0.69957E-01   -0.38623E+01  6132   0.275E+01    0.850E-01
DAV:   2    -0.131989056131E+03   -0.85130E-01   -0.95504E-01  6680   0.392E+00    0.503E-01
DAV:   3    -0.131984218625E+03    0.48375E-02   -0.11864E-02  7144   0.495E-01    0.320E-01
DAV:   4    -0.131981524934E+03    0.26937E-02   -0.87420E-03  6882   0.462E-01    0.112E-01
DAV:   5    -0.131981504285E+03    0.20649E-04   -0.26191E-03  7048   0.237E-01    0.640E-02
DAV:   6    -0.131981502447E+03    0.18378E-05   -0.62732E-04  7022   0.122E-01    0.370E-02
DAV:   7    -0.131981475056E+03    0.27392E-04   -0.87597E-05  6802   0.470E-02    0.223E-02
DAV:   8    -0.131981438413E+03    0.36643E-04   -0.56710E-05  6692   0.556E-02    0.127E-02
DAV:   9    -0.131981417408E+03    0.21004E-04   -0.22486E-05  5378   0.370E-02    0.924E-03
DAV:  10    -0.131981396298E+03    0.21111E-04   -0.35917E-05  6034   0.446E-02    0.814E-03
DAV:  11    -0.131981354534E+03    0.41763E-04   -0.35349E-05  6452   0.952E-02    0.150E-02
DAV:  12    -0.131981319851E+03    0.34683E-04   -0.67248E-05  7376   0.106E-01    0.983E-03
DAV:  13    -0.131981311935E+03    0.79159E-05   -0.83719E-05  6776   0.732E-02
  28 F= -.13198131E+03 E0= -.13197813E+03  d E =-.148181E-01
       N       E                     dE             d eps       ncg     rms          rms(c)
DAV:   1    -0.131985621219E+03   -0.43014E-02   -0.16877E+00  6128   0.572E+00    0.175E-01
DAV:   2    -0.131988917545E+03   -0.32963E-02   -0.39298E-02  6742   0.799E-01    0.915E-02
DAV:   3    -0.131988751833E+03    0.16571E-03   -0.54030E-04  7346   0.972E-02    0.597E-02
DAV:   4    -0.131988644281E+03    0.10755E-03   -0.27343E-04  7262   0.908E-02    0.218E-02
DAV:   5    -0.131988641673E+03    0.26086E-05   -0.13792E-04  7020   0.588E-02    0.166E-02
DAV:   6    -0.131988637740E+03    0.39327E-05   -0.35717E-05  5770   0.312E-02
  29 F= -.13198864E+03 E0= -.13198573E+03  d E =-.732580E-02
       N       E                     dE             d eps       ncg     rms          rms(c)
DAV:   1    -0.131977606295E+03    0.11035E-01   -0.15157E+01  6100   0.172E+01    0.541E-01
DAV:   2    -0.132009174058E+03   -0.31568E-01   -0.36401E-01  6738   0.242E+00    0.286E-01
DAV:   3    -0.132007618000E+03    0.15561E-02   -0.49469E-03  7282   0.296E-01    0.183E-01
DAV:   4    -0.132006628521E+03    0.98948E-03   -0.24368E-03  7182   0.249E-01    0.666E-02
DAV:   5    -0.132006561253E+03    0.67268E-04   -0.10830E-03  7158   0.162E-01    0.463E-02
DAV:   6    -0.132006514260E+03    0.46993E-04   -0.29645E-04  7182   0.917E-02    0.324E-02
DAV:   7    -0.132006468250E+03    0.46010E-04   -0.67737E-05  7046   0.440E-02    0.201E-02
DAV:   8    -0.132006406674E+03    0.61576E-04   -0.27221E-05  5818   0.514E-02    0.975E-03
DAV:   9    -0.132006359146E+03    0.47528E-04   -0.50286E-05  6498   0.643E-02    0.592E-03
DAV:  10    -0.132006320455E+03    0.38691E-04   -0.36865E-05  6182   0.670E-02    0.735E-03
DAV:  11    -0.132006263928E+03    0.56527E-04   -0.43559E-05  6470   0.123E-01    0.730E-03
DAV:  12    -0.132006256345E+03    0.75835E-05   -0.78979E-05  6630   0.572E-02
  30 F= -.13200626E+03 E0= -.13200453E+03  d E =-.249444E-01
       N       E                     dE             d eps       ncg     rms          rms(c)
DAV:   1    -0.131879287632E+03    0.12698E+00   -0.60559E+01  6084   0.343E+01    0.113E+00
DAV:   2    -0.132016050761E+03   -0.13676E+00   -0.15586E+00  6756   0.498E+00    0.656E-01
DAV:   3    -0.132008836352E+03    0.72144E-02   -0.23539E-02  7136   0.649E-01    0.398E-01
DAV:   4    -0.132004835748E+03    0.40006E-02   -0.11051E-02  7054   0.481E-01    0.151E-01
DAV:   5    -0.132004458119E+03    0.37763E-03   -0.37196E-03  7206   0.298E-01    0.824E-02
DAV:   6    -0.132004355231E+03    0.10289E-03   -0.12381E-03  7298   0.166E-01    0.632E-02
DAV:   7    -0.132004239068E+03    0.11616E-03   -0.44559E-04  7084   0.748E-02    0.449E-02
DAV:   8    -0.132004062351E+03    0.17672E-03   -0.21863E-04  7358   0.746E-02    0.262E-02
DAV:   9    -0.132003891228E+03    0.17112E-03   -0.10392E-04  6954   0.975E-02    0.159E-02
DAV:  10    -0.132003769589E+03    0.12164E-03   -0.15169E-04  7210   0.108E-01    0.128E-02
DAV:  11    -0.132003544367E+03    0.22522E-03   -0.19165E-04  9262   0.218E-01    0.220E-02
DAV:  12    -0.132003463214E+03    0.81154E-04   -0.20238E-04  7200   0.139E-01    0.173E-02
DAV:  13    -0.132003443657E+03    0.19556E-04   -0.23086E-04  6966   0.107E-01    0.143E-02
DAV:  14    -0.132003432599E+03    0.11058E-04   -0.70500E-05  6336   0.524E-02    0.115E-02
DAV:  15    -0.132003409201E+03    0.23398E-04   -0.10902E-05  4886   0.717E-02    0.733E-03
DAV:  16    -0.132003385893E+03    0.23308E-04   -0.67661E-05  7542   0.127E-01    0.521E-03
DAV:  17    -0.132003389604E+03   -0.37113E-05   -0.56982E-05  5824   0.287E-02
  31 F= -.13200339E+03 E0= -.13200153E+03  d E =-.220777E-01
       N       E                     dE             d eps       ncg     rms          rms(c)
DAV:   1    -0.131975123729E+03    0.28262E-01   -0.20038E+01  6076   0.196E+01    0.608E-01
DAV:   2    -0.132015803252E+03   -0.40680E-01   -0.46428E-01  6778   0.276E+00    0.309E-01
DAV:   3    -0.132014029100E+03    0.17742E-02   -0.60717E-03  7328   0.340E-01    0.205E-01
DAV:   4    -0.132012868681E+03    0.11604E-02   -0.33751E-03  7272   0.331E-01    0.781E-02
DAV:   5    -0.132012861469E+03    0.72125E-05   -0.15498E-03  7162   0.178E-01    0.641E-02
DAV:   6    -0.132012775036E+03    0.86433E-04   -0.55622E-04  7490   0.129E-01    0.335E-02
DAV:   7    -0.132012730212E+03    0.44824E-04   -0.98787E-05  6826   0.483E-02    0.221E-02
DAV:   8    -0.132012680462E+03    0.49750E-04   -0.50374E-05  6698   0.399E-02    0.843E-03
DAV:   9    -0.132012645007E+03    0.35454E-04   -0.32672E-05  5614   0.393E-02    0.837E-03
DAV:  10    -0.132012607019E+03    0.37988E-04   -0.20099E-05  5376   0.567E-02    0.720E-03
DAV:  11    -0.132012565500E+03    0.41519E-04   -0.66750E-05  7520   0.102E-01    0.748E-03
DAV:  12    -0.132012540756E+03    0.24744E-04   -0.48388E-05  6844   0.908E-02    0.652E-03
DAV:  13    -0.132012531993E+03    0.87623E-05   -0.36817E-05  6306   0.521E-02
  32 F= -.13201253E+03 E0= -.13201107E+03  d E =-.312201E-01
       N       E                     dE             d eps       ncg     rms          rms(c)
DAV:   1    -0.132015511834E+03   -0.29711E-02   -0.10472E+00  6162   0.449E+00    0.135E-01
DAV:   2    -0.132017710376E+03   -0.21985E-02   -0.24315E-02  6662   0.623E-01    0.721E-02
DAV:   3    -0.132017613297E+03    0.97079E-04   -0.28601E-04  7190   0.746E-02    0.487E-02
DAV:   4    -0.132017549283E+03    0.64014E-04   -0.16800E-04  7150   0.753E-02    0.174E-02
DAV:   5    -0.132017550042E+03   -0.75928E-06   -0.90855E-05  6608   0.416E-02    0.132E-02
DAV:   6    -0.132017546471E+03    0.35714E-05   -0.23179E-05  4758   0.233E-02
  33 F= -.13201755E+03 E0= -.13201606E+03  d E =-.501448E-02
       N       E                     dE             d eps       ncg     rms          rms(c)
DAV:   1    -0.132010913313E+03    0.66367E-02   -0.94249E+00  6156   0.135E+01    0.411E-01
DAV:   2    -0.132030804009E+03   -0.19891E-01   -0.22130E-01  6658   0.188E+00    0.223E-01
DAV:   3    -0.132029892519E+03    0.91149E-03   -0.27280E-03  7200   0.234E-01    0.146E-01
DAV:   4    -0.132029322691E+03    0.56983E-03   -0.13983E-03  7112   0.212E-01    0.536E-02
DAV:   5    -0.132029318425E+03    0.42668E-05   -0.77265E-04  6998   0.122E-01    0.343E-02
DAV:   6    -0.132029300357E+03    0.18068E-04   -0.14302E-04  7048   0.521E-02    0.184E-02
DAV:   7    -0.132029282725E+03    0.17631E-04   -0.51730E-05  5764   0.309E-02    0.123E-02
DAV:   8    -0.132029267888E+03    0.14837E-04   -0.16751E-05  4428   0.290E-02    0.766E-03
DAV:   9    -0.132029249363E+03    0.18525E-04   -0.20586E-05  5266   0.429E-02    0.460E-03
DAV:  10    -0.132029234056E+03    0.15307E-04   -0.10538E-05  4382   0.354E-02    0.592E-03
DAV:  11    -0.132029204311E+03    0.29745E-04   -0.15839E-05  5204   0.665E-02    0.660E-03
DAV:  12    -0.132029177038E+03    0.27273E-04   -0.50794E-05  7216   0.109E-01    0.717E-03
DAV:  13    -0.132029174739E+03    0.22990E-05   -0.70891E-05  6474   0.651E-02
  34 F= -.13202917E+03 E0= -.13202750E+03  d E =-.166427E-01
       N       E                     dE             d eps       ncg     rms          rms(c)
DAV:   1    -0.131961348302E+03    0.67829E-01   -0.37668E+01  6156   0.269E+01    0.856E-01
DAV:   2    -0.132044233660E+03   -0.82885E-01   -0.93803E-01  6720   0.385E+00    0.491E-01
DAV:   3    -0.132040002109E+03    0.42316E-02   -0.12434E-02  7078   0.501E-01    0.307E-01
DAV:   4    -0.132037619866E+03    0.23822E-02   -0.59947E-03  7062   0.408E-01    0.110E-01
DAV:   5    -0.132037602943E+03    0.16923E-04   -0.27731E-03  7042   0.230E-01    0.560E-02
DAV:   6    -0.132037589797E+03    0.13146E-04   -0.41032E-04  7206   0.799E-02    0.366E-02
DAV:   7    -0.132037554570E+03    0.35228E-04   -0.21660E-04  6320   0.430E-02    0.225E-02
DAV:   8    -0.132037507820E+03    0.46749E-04   -0.94966E-05  5462   0.500E-02    0.968E-03
DAV:   9    -0.132037477631E+03    0.30189E-04   -0.31621E-05  6030   0.462E-02    0.674E-03
DAV:  10    -0.132037444296E+03    0.33335E-04   -0.72999E-06  4658   0.441E-02    0.707E-03
DAV:  11    -0.132037359237E+03    0.85059E-04   -0.63796E-05  7310   0.138E-01    0.903E-03
DAV:  12    -0.132037319490E+03    0.39747E-04   -0.94528E-05  7688   0.116E-01    0.606E-03
DAV:  13    -0.132037304049E+03    0.15440E-04   -0.77317E-05  7340   0.106E-01    0.684E-03
DAV:  14    -0.132037305664E+03   -0.16150E-05   -0.71411E-05  6152   0.433E-02
  35 F= -.13203731E+03 E0= -.13203473E+03  d E =-.247737E-01
       N       E                     dE             d eps       ncg     rms          rms(c)
DAV:   1    -0.132044289346E+03   -0.69853E-02   -0.33432E-01  6254   0.253E+00    0.940E-02
DAV:   2    -0.132044949468E+03   -0.66012E-03   -0.86721E-03  6834   0.380E-01    0.518E-02
DAV:   3    -0.132044899335E+03    0.50133E-04   -0.25425E-04  7112   0.754E-02    0.393E-02
DAV:   4    -0.132044860909E+03    0.38425E-04   -0.10156E-04  6888   0.520E-02    0.213E-02
DAV:   5    -0.132044836793E+03    0.24116E-04   -0.39751E-05  6418   0.430E-02    0.119E-02
DAV:   6    -0.132044825772E+03    0.11022E-04   -0.27509E-05  5896   0.403E-02    0.808E-03
DAV:   7    -0.132044822696E+03    0.30753E-05   -0.27646E-05  5620   0.265E-02
  36 F= -.13204482E+03 E0= -.13204226E+03  d E =-.751703E-02
       N       E                     dE             d eps       ncg     rms          rms(c)
DAV:   1    -0.132057658488E+03   -0.12833E-01   -0.30099E+00  6166   0.758E+00    0.275E-01
DAV:   2    -0.132063531098E+03   -0.58726E-02   -0.76695E-02  6786   0.113E+00    0.154E-01
DAV:   3    -0.132063024047E+03    0.50705E-03   -0.19741E-03  7130   0.219E-01    0.114E-01
DAV:   4    -0.132062632490E+03    0.39156E-03   -0.87911E-04  6964   0.164E-01    0.621E-02
DAV:   5    -0.132062396427E+03    0.23606E-03   -0.35343E-04  7210   0.141E-01    0.335E-02
DAV:   6    -0.132062282000E+03    0.11443E-03   -0.28319E-04  7354   0.134E-01    0.190E-02
DAV:   7    -0.132062259349E+03    0.22651E-04   -0.22349E-04  7002   0.759E-02    0.207E-02
DAV:   8    -0.132062234907E+03    0.24442E-04   -0.26803E-05  5398   0.323E-02    0.127E-02
DAV:   9    -0.132062192334E+03    0.42573E-04   -0.13208E-04  7314   0.900E-02    0.198E-02
DAV:  10    -0.132062185747E+03    0.65876E-05   -0.57537E-05  6702   0.401E-02
  37 F= -.13206219E+03 E0= -.13205974E+03  d E =-.248801E-01
       N       E                     dE             d eps       ncg     rms          rms(c)
DAV:   1    -0.132055264001E+03    0.69283E-02   -0.12047E+01  6212   0.152E+01    0.537E-01
DAV:   2    -0.132078778896E+03   -0.23515E-01   -0.30495E-01  6786   0.224E+00    0.310E-01
DAV:   3    -0.132076739217E+03    0.20397E-02   -0.73987E-03  7098   0.416E-01    0.223E-01
DAV:   4    -0.132075120868E+03    0.16183E-02   -0.33878E-03  6992   0.328E-01    0.117E-01
DAV:   5    -0.132074315373E+03    0.80549E-03   -0.14976E-03  7026   0.265E-01    0.621E-02
DAV:   6    -0.132073940200E+03    0.37517E-03   -0.10667E-03  7310   0.228E-01    0.305E-02
DAV:   7    -0.132073860127E+03    0.80073E-04   -0.59009E-04  6990   0.114E-01    0.377E-02
DAV:   8    -0.132073803746E+03    0.56381E-04   -0.66127E-05  6824   0.433E-02    0.298E-02
DAV:   9    -0.132073622868E+03    0.18088E-03   -0.29254E-04  7380   0.135E-01    0.209E-02
DAV:  10    -0.132073583019E+03    0.39849E-04   -0.20164E-04  7464   0.886E-02    0.315E-02
DAV:  11    -0.132073566170E+03    0.16849E-04   -0.12616E-04  6692   0.479E-02    0.135E-02
DAV:  12    -0.132073523531E+03    0.42639E-04   -0.43420E-05  6770   0.724E-02    0.105E-02
DAV:  13    -0.132073490305E+03    0.33226E-04   -0.76858E-05  7502   0.999E-02    0.189E-02
DAV:  14    -0.132073467218E+03    0.23088E-04   -0.67137E-05  7062   0.785E-02    0.957E-03
DAV:  15    -0.132073455876E+03    0.11342E-04   -0.54876E-05  6582   0.704E-02    0.906E-03
DAV:  16    -0.132073449262E+03    0.66140E-05   -0.29605E-05  5516   0.363E-02
  38 F= -.13207345E+03 E0= -.13207134E+03  d E =-.361436E-01
       N       E                     dE             d eps       ncg     rms          rms(c)
DAV:   1    -0.132077878105E+03   -0.44222E-02   -0.60725E-02  6366   0.109E+00    0.472E-02
DAV:   2    -0.132077998465E+03   -0.12036E-03   -0.16277E-03  6634   0.162E-01    0.235E-02
DAV:   3    -0.132077992196E+03    0.62693E-05   -0.45163E-05  6042   0.277E-02    0.151E-02
DAV:   4    -0.132077986506E+03    0.56903E-05   -0.11977E-05  4196   0.228E-02    0.898E-03
DAV:   5    -0.132077983380E+03    0.31256E-05   -0.67963E-06  3944   0.216E-02    0.468E-03
DAV:   6    -0.132077981235E+03    0.21446E-05   -0.50865E-06  3868   0.186E-02
  39 F= -.13207798E+03 E0= -.13207592E+03  d E =-.453197E-02
       N       E                     dE             d eps       ncg     rms          rms(c)
DAV:   1    -0.132090187324E+03   -0.12204E-01   -0.54686E-01  6228   0.327E+00    0.142E-01
DAV:   2    -0.132091290179E+03   -0.11029E-02   -0.14748E-02  6512   0.483E-01    0.702E-02
DAV:   3    -0.132091241708E+03    0.48471E-04   -0.40534E-04  7126   0.735E-02    0.445E-02
DAV:   4    -0.132091213432E+03    0.28276E-04   -0.11820E-04  7300   0.605E-02    0.301E-02
DAV:   5    -0.132091206056E+03    0.73755E-05   -0.37065E-05  6052   0.377E-02    0.159E-02
DAV:   6    -0.132091198181E+03    0.78752E-05   -0.15079E-05  4340   0.358E-02
  40 F= -.13209120E+03 E0= -.13208925E+03  d E =-.177489E-01
       N       E                     dE             d eps       ncg     rms          rms(c)
DAV:   1    -0.132111582667E+03   -0.20377E-01   -0.21894E+00  6228   0.656E+00    0.286E-01
DAV:   2    -0.132116074636E+03   -0.44920E-02   -0.60599E-02  6564   0.972E-01    0.146E-01
DAV:   3    -0.132115691741E+03    0.38289E-03   -0.21268E-03  7050   0.152E-01    0.875E-02
DAV:   4    -0.132115599767E+03    0.91974E-04   -0.41029E-04  7238   0.102E-01    0.680E-02
DAV:   5    -0.132115560638E+03    0.39129E-04   -0.11228E-04  7050   0.697E-02    0.346E-02
DAV:   6    -0.132115527572E+03    0.33066E-04   -0.52450E-05  6948   0.766E-02    0.776E-03
DAV:   7    -0.132115522013E+03    0.55589E-05   -0.56689E-05  6332   0.413E-02
  41 F= -.13211552E+03 E0= -.13211357E+03  d E =-.420728E-01
       N       E                     dE             d eps       ncg     rms          rms(c)
DAV:   1    -0.132140088693E+03   -0.24561E-01   -0.87611E+00  6288   0.131E+01    0.578E-01
DAV:   2    -0.132157473502E+03   -0.17385E-01   -0.25494E-01  6700   0.198E+00    0.306E-01
DAV:   3    -0.132154965332E+03    0.25082E-02   -0.10912E-02  6908   0.325E-01    0.173E-01
DAV:   4    -0.132154660436E+03    0.30490E-03   -0.17035E-03  7170   0.185E-01    0.148E-01
DAV:   5    -0.132154468774E+03    0.19166E-03   -0.42298E-04  7008   0.132E-01    0.784E-02
DAV:   6    -0.132154318345E+03    0.15043E-03   -0.25894E-04  8182   0.176E-01    0.127E-02
DAV:   7    -0.132154303958E+03    0.14387E-04   -0.26690E-04  6764   0.863E-02    0.177E-02
DAV:   8    -0.132154298833E+03    0.51250E-05   -0.40472E-05  5382   0.255E-02
  42 F= -.13215430E+03 E0= -.13215204E+03  d E =-.808496E-01
       N       E                     dE             d eps       ncg     rms          rms(c)
DAV:   1    -0.132119053916E+03    0.35250E-01   -0.34992E+01  6234   0.263E+01    0.115E+00
DAV:   2    -0.132194579392E+03   -0.75525E-01   -0.10338E+00  6438   0.400E+00    0.590E-01
DAV:   3    -0.132190560107E+03    0.40193E-02   -0.32730E-02  7026   0.630E-01    0.360E-01
DAV:   4    -0.132188925916E+03    0.16342E-02   -0.79035E-03  7364   0.443E-01    0.256E-01
DAV:   5    -0.132188413064E+03    0.51285E-03   -0.21831E-03  7010   0.270E-01    0.146E-01
DAV:   6    -0.132187997542E+03    0.41552E-03   -0.91480E-04  8358   0.282E-01    0.519E-02
DAV:   7    -0.132187817442E+03    0.18010E-03   -0.67619E-04  7126   0.177E-01    0.382E-02
DAV:   8    -0.132187777108E+03    0.40334E-04   -0.25979E-04  6604   0.717E-02    0.359E-02
DAV:   9    -0.132187752909E+03    0.24200E-04   -0.12091E-05  3972   0.155E-02    0.325E-02
DAV:  10    -0.132187388830E+03    0.36408E-03   -0.72870E-04  7144   0.215E-01    0.568E-02
DAV:  11    -0.132187238965E+03    0.14986E-03   -0.24723E-04  8362   0.148E-01    0.616E-02
DAV:  12    -0.132187227363E+03    0.11603E-04   -0.48586E-04  6602   0.813E-02    0.418E-02
DAV:  13    -0.132187174052E+03    0.53311E-04   -0.59544E-05  6676   0.638E-02    0.337E-02
DAV:  14    -0.132186922953E+03    0.25110E-03   -0.63672E-04 10096   0.362E-01    0.504E-02
DAV:  15    -0.132186885778E+03    0.37176E-04   -0.64429E-04  8126   0.247E-01    0.695E-02
DAV:  16    -0.132186815902E+03    0.69876E-04   -0.36205E-04  6838   0.800E-02    0.540E-02
DAV:  17    -0.132186758888E+03    0.57014E-04   -0.29644E-04  6594   0.645E-02    0.882E-03
DAV:  18    -0.132186747925E+03    0.10963E-04   -0.16342E-05  4854   0.345E-02    0.518E-03
DAV:  19    -0.132186743920E+03    0.40050E-05   -0.40183E-05  6120   0.472E-02
  43 F= -.13218674E+03 E0= -.13218420E+03  d E =-.113295E+00
       N       E                     dE             d eps       ncg     rms          rms(c)
DAV:   1    -0.132237717581E+03   -0.50970E-01   -0.37274E+00  6454   0.833E+00    0.399E-01
DAV:   2    -0.132241913145E+03   -0.41956E-02   -0.12749E-01  6874   0.144E+00    0.257E-01
DAV:   3    -0.132240221236E+03    0.16919E-02   -0.88446E-03  6990   0.350E-01    0.181E-01
DAV:   4    -0.132239714713E+03    0.50652E-03   -0.15317E-03  7270   0.164E-01    0.138E-01
DAV:   5    -0.132239024545E+03    0.69017E-03   -0.48594E-04  7072   0.130E-01    0.802E-02
DAV:   6    -0.132238339664E+03    0.68488E-03   -0.95678E-04  7154   0.228E-01    0.287E-02
DAV:   7    -0.132238135625E+03    0.20404E-03   -0.58693E-04  7150   0.161E-01    0.238E-02
DAV:   8    -0.132238025208E+03    0.11042E-03   -0.16508E-04  7068   0.838E-02    0.202E-02
DAV:   9    -0.132237800544E+03    0.22466E-03   -0.73876E-05  7466   0.121E-01    0.155E-02
DAV:  10    -0.132237448756E+03    0.35179E-03   -0.27366E-04  8412   0.270E-01    0.252E-02
DAV:  11    -0.132237277856E+03    0.17090E-03   -0.47038E-04  8990   0.252E-01    0.155E-02
DAV:  12    -0.132237225358E+03    0.52498E-04   -0.39933E-04  7508   0.196E-01    0.280E-02
DAV:  13    -0.132237176031E+03    0.49326E-04   -0.17355E-04  7086   0.108E-01    0.918E-03
DAV:  14    -0.132237169520E+03    0.65117E-05   -0.84336E-05  6460   0.613E-02
  44 F= -.13223717E+03 E0= -.13223445E+03  d E =-.504256E-01
       N       E                     dE             d eps       ncg     rms          rms(c)
DAV:   1    -0.132246558052E+03   -0.93820E-02   -0.18116E+00  6374   0.590E+00    0.273E-01
DAV:   2    -0.132249281808E+03   -0.27238E-02   -0.57242E-02  6862   0.101E+00    0.174E-01
DAV:   3    -0.132248611128E+03    0.67068E-03   -0.29601E-03  7372   0.234E-01    0.129E-01
DAV:   4    -0.132248331018E+03    0.28011E-03   -0.69359E-04  7218   0.113E-01    0.905E-02
DAV:   5    -0.132247965498E+03    0.36552E-03   -0.30982E-04  6996   0.104E-01    0.459E-02
DAV:   6    -0.132247696305E+03    0.26919E-03   -0.32588E-04  7178   0.135E-01    0.168E-02
DAV:   7    -0.132247584260E+03    0.11205E-03   -0.18352E-04  7276   0.104E-01    0.148E-02
DAV:   8    -0.132247485110E+03    0.99150E-04   -0.49381E-05  6738   0.807E-02    0.122E-02
DAV:   9    -0.132247256714E+03    0.22840E-03   -0.11710E-04  9016   0.198E-01    0.126E-02
DAV:  10    -0.132247122687E+03    0.13403E-03   -0.16778E-04  7824   0.171E-01    0.116E-02
DAV:  11    -0.132247046475E+03    0.76212E-04   -0.15274E-04  8026   0.161E-01    0.994E-03
DAV:  12    -0.132247016991E+03    0.29484E-04   -0.13516E-04  7366   0.125E-01    0.887E-03
DAV:  13    -0.132246998058E+03    0.18933E-04   -0.32346E-05  5926   0.105E-01    0.625E-03
DAV:  14    -0.132246997143E+03    0.91414E-06   -0.75268E-05  6484   0.724E-02
  45 F= -.13224700E+03 E0= -.13224436E+03  d E =-.602532E-01
       N       E                     dE             d eps       ncg     rms          rms(c)
DAV:   1    -0.132268072906E+03   -0.21075E-01   -0.14281E+00  6332   0.513E+00    0.169E-01
DAV:   2    -0.132270923083E+03   -0.28502E-02   -0.33826E-02  6710   0.738E-01    0.107E-01
DAV:   3    -0.132270676303E+03    0.24678E-03   -0.57212E-04  7288   0.146E-01    0.756E-02
DAV:   4    -0.132270454524E+03    0.22178E-03   -0.94779E-04  7680   0.220E-01    0.305E-02
DAV:   5    -0.132270460597E+03   -0.60734E-05   -0.45757E-04  6648   0.992E-02    0.334E-02
DAV:   6    -0.132270450756E+03    0.98409E-05   -0.38862E-05  5642   0.267E-02
  46 F= -.13227045E+03 E0= -.13226787E+03  d E =-.234536E-01
       N       E                     dE             d eps       ncg     rms          rms(c)
DAV:   1    -0.132299635394E+03   -0.29175E-01   -0.12822E+01  6316   0.153E+01    0.558E-01
DAV:   2    -0.132325616615E+03   -0.25981E-01   -0.33389E-01  6770   0.228E+00    0.369E-01
DAV:   3    -0.132319496128E+03    0.61205E-02   -0.15716E-02  7066   0.500E-01    0.246E-01
DAV:   4    -0.132318227510E+03    0.12686E-02   -0.37833E-03  7032   0.358E-01    0.151E-01
DAV:   5    -0.132317012054E+03    0.12155E-02   -0.15836E-03  8674   0.367E-01    0.678E-02
DAV:   6    -0.132316371572E+03    0.64048E-03   -0.14416E-03  7418   0.371E-01    0.307E-02
DAV:   7    -0.132316251925E+03    0.11965E-03   -0.13766E-03  6986   0.201E-01    0.363E-02
DAV:   8    -0.132316197186E+03    0.54739E-04   -0.17314E-04  6722   0.602E-02    0.361E-02
DAV:   9    -0.132316061705E+03    0.13548E-03   -0.63109E-05  6588   0.642E-02    0.218E-02
DAV:  10    -0.132315665882E+03    0.39582E-03   -0.11691E-03  7240   0.360E-01    0.734E-02
DAV:  11    -0.132315570303E+03    0.95579E-04   -0.55565E-04  7294   0.127E-01    0.410E-02
DAV:  12    -0.132315561848E+03    0.84549E-05   -0.45739E-04  6408   0.797E-02    0.215E-02
DAV:  13    -0.132315499639E+03    0.62209E-04   -0.32291E-05  6274   0.964E-02    0.184E-02
DAV:  14    -0.132315402397E+03    0.97242E-04   -0.22221E-04  8942   0.238E-01    0.180E-02
DAV:  15    -0.132315396961E+03    0.54355E-05   -0.18852E-04  6986   0.533E-02    0.182E-02
DAV:  16    -0.132315388101E+03    0.88606E-05   -0.13053E-04  6682   0.479E-02    0.167E-02
DAV:  17    -0.132315374896E+03    0.13205E-04   -0.21489E-05  5264   0.235E-02    0.766E-03
DAV:  18    -0.132315366293E+03    0.86030E-05   -0.20265E-05  5490   0.428E-02
  47 F= -.13231537E+03 E0= -.13231122E+03  d E =-.683691E-01
       N       E                     dE             d eps       ncg     rms          rms(c)
DAV:   1    -0.132243584216E+03    0.71791E-01   -0.51134E+01  6236   0.304E+01    0.119E+00
DAV:   2    -0.132346549124E+03   -0.10296E+00   -0.15229E+00  6788   0.459E+00    0.761E-01
DAV:   3    -0.132326684631E+03    0.19864E-01   -0.46831E-02  7034   0.993E-01    0.505E-01
DAV:   4    -0.132321143112E+03    0.55415E-02   -0.22368E-02  7096   0.787E-01    0.278E-01
DAV:   5    -0.132318372080E+03    0.27710E-02   -0.88934E-03  7112   0.517E-01    0.148E-01
DAV:   6    -0.132317134193E+03    0.12379E-02   -0.40339E-03  7180   0.328E-01    0.883E-02
DAV:   7    -0.132315717192E+03    0.14170E-02   -0.15983E-03  8782   0.372E-01    0.380E-02
DAV:   8    -0.132315021435E+03    0.69576E-03   -0.11148E-03  7284   0.264E-01    0.293E-02
DAV:   9    -0.132314383835E+03    0.63760E-03   -0.54745E-04 10300   0.264E-01    0.241E-02
DAV:  10    -0.132313781018E+03    0.60282E-03   -0.58324E-04  8732   0.316E-01    0.220E-02
DAV:  11    -0.132313594153E+03    0.18686E-03   -0.85727E-04  7096   0.204E-01    0.159E-02
DAV:  12    -0.132313410709E+03    0.18344E-03   -0.32767E-04  9342   0.202E-01    0.117E-02
DAV:  13    -0.132313396872E+03    0.13837E-04   -0.42073E-04  6944   0.965E-02    0.153E-02
DAV:  14    -0.132313379119E+03    0.17753E-04   -0.45086E-05  5880   0.307E-02    0.119E-02
DAV:  15    -0.132313304248E+03    0.74871E-04   -0.10073E-04  7092   0.804E-02    0.172E-02
DAV:  16    -0.132313283286E+03    0.20962E-04   -0.47905E-05  6672   0.421E-02    0.201E-02
DAV:  17    -0.132313267949E+03    0.15337E-04   -0.10795E-04  6672   0.464E-02    0.805E-03
DAV:  18    -0.132313250434E+03    0.17515E-04   -0.25242E-05  5648   0.608E-02    0.117E-02
DAV:  19    -0.132313243363E+03    0.70711E-05   -0.35346E-05  6282   0.387E-02
  48 F= -.13231324E+03 E0= -.13231031E+03  d E =-.662462E-01
       N       E                     dE             d eps       ncg     rms          rms(c)
DAV:   1    -0.132312413362E+03    0.83707E-03   -0.17483E+01  6372   0.172E+01    0.613E-01
DAV:   2    -0.132343476290E+03   -0.31063E-01   -0.45683E-01  6738   0.255E+00    0.415E-01
DAV:   3    -0.132338425170E+03    0.50511E-02   -0.22964E-02  7060   0.526E-01    0.288E-01
DAV:   4    -0.132336783328E+03    0.16418E-02   -0.43529E-03  7040   0.294E-01    0.190E-01
DAV:   5    -0.132335007490E+03    0.17758E-02   -0.21883E-03  8080   0.354E-01    0.817E-02
DAV:   6    -0.132334289893E+03    0.71760E-03   -0.25763E-03  7168   0.342E-01    0.338E-02
DAV:   7    -0.132334124287E+03    0.16561E-03   -0.10667E-03  7056   0.180E-01    0.329E-02
DAV:   8    -0.132333993568E+03    0.13072E-03   -0.17250E-04  6944   0.813E-02    0.218E-02
DAV:   9    -0.132333814782E+03    0.17879E-03   -0.91084E-05  7680   0.968E-02    0.129E-02
DAV:  10    -0.132333581567E+03    0.23321E-03   -0.25851E-04  8478   0.193E-01    0.195E-02
DAV:  11    -0.132333558563E+03    0.23004E-04   -0.23172E-04  6928   0.744E-02    0.166E-02
DAV:  12    -0.132333515050E+03    0.43513E-04   -0.11420E-04  7540   0.845E-02    0.161E-02
DAV:  13    -0.132333469359E+03    0.45691E-04   -0.45251E-05  6478   0.851E-02    0.834E-03
DAV:  14    -0.132333435537E+03    0.33822E-04   -0.73849E-05  6682   0.897E-02    0.101E-02
DAV:  15    -0.132333433699E+03    0.18371E-05   -0.89772E-05  6686   0.395E-02
  49 F= -.13233343E+03 E0= -.13233031E+03  d E =-.864366E-01
       N       E                     dE             d eps       ncg     rms          rms(c)
DAV:   1    -0.132351970551E+03   -0.18535E-01   -0.28089E-01  6508   0.218E+00    0.109E-01
DAV:   2    -0.132352535796E+03   -0.56524E-03   -0.11354E-02  6782   0.366E-01    0.795E-02
DAV:   3    -0.132352049520E+03    0.48628E-03   -0.14197E-03  7016   0.102E-01    0.439E-02
DAV:   4    -0.132351994784E+03    0.54736E-04   -0.10543E-04  7230   0.543E-02    0.310E-02
DAV:   5    -0.132351932284E+03    0.62500E-04   -0.30184E-05  6188   0.582E-02    0.180E-02
DAV:   6    -0.132351847431E+03    0.84853E-04   -0.80110E-05  7586   0.100E-01    0.758E-03
DAV:   7    -0.132351807866E+03    0.39566E-04   -0.67913E-05  6652   0.699E-02    0.722E-03
DAV:   8    -0.132351761730E+03    0.46136E-04   -0.20857E-05  5608   0.817E-02    0.492E-03
DAV:   9    -0.132351713173E+03    0.48557E-04   -0.74260E-05  7932   0.125E-01    0.578E-03
DAV:  10    -0.132351707449E+03    0.57232E-05   -0.93497E-05  6476   0.564E-02
  50 F= -.13235171E+03 E0= -.13234878E+03  d E =-.182737E-01
       N       E                     dE             d eps       ncg     rms          rms(c)
DAV:   1    -0.132387162656E+03   -0.35449E-01   -0.25277E+00  6508   0.657E+00    0.326E-01
DAV:   2    -0.132391014165E+03   -0.38515E-02   -0.93353E-02  6814   0.111E+00    0.198E-01
DAV:   3    -0.132388955135E+03    0.20590E-02   -0.78786E-03  7062   0.300E-01    0.134E-01
DAV:   4    -0.132388500447E+03    0.45469E-03   -0.97305E-04  7032   0.151E-01    0.954E-02
DAV:   5    -0.132387931481E+03    0.56897E-03   -0.34275E-04  7600   0.193E-01    0.500E-02
DAV:   6    -0.132387354395E+03    0.57709E-03   -0.60226E-04  8374   0.289E-01    0.214E-02
DAV:   7    -0.132387073357E+03    0.28104E-03   -0.52489E-04  7776   0.221E-01    0.191E-02
DAV:   8    -0.132386966729E+03    0.10663E-03   -0.40338E-04  7276   0.134E-01    0.236E-02
DAV:   9    -0.132386867967E+03    0.98763E-04   -0.65119E-05  6842   0.654E-02    0.136E-02
DAV:  10    -0.132386482912E+03    0.38505E-03   -0.44755E-04  9036   0.401E-01    0.305E-02
DAV:  11    -0.132386459545E+03    0.23367E-04   -0.32994E-04  7024   0.104E-01    0.221E-02
DAV:  12    -0.132386452617E+03    0.69279E-05   -0.16153E-04  6716   0.546E-02    0.131E-02
DAV:  13    -0.132386407105E+03    0.45512E-04   -0.23405E-05  5674   0.882E-02    0.777E-03
DAV:  14    -0.132386359186E+03    0.47920E-04   -0.93736E-05  7928   0.138E-01    0.822E-03
DAV:  15    -0.132386356281E+03    0.29044E-05   -0.86418E-05  6662   0.383E-02
  51 F= -.13238636E+03 E0= -.13238344E+03  d E =-.529226E-01
       N       E                     dE             d eps       ncg     rms          rms(c)
DAV:   1    -0.132372260637E+03    0.14099E-01   -0.10113E+01  6556   0.134E+01    0.701E-01
DAV:   2    -0.132384783084E+03   -0.12522E-01   -0.30454E-01  6750   0.228E+00    0.351E-01
DAV:   3    -0.132381533240E+03    0.32498E-02   -0.15767E-02  7320   0.637E-01    0.262E-01
DAV:   4    -0.132379178152E+03    0.23551E-02   -0.49325E-03  7124   0.391E-01    0.144E-01
DAV:   5    -0.132377377611E+03    0.18005E-02   -0.42789E-03  7816   0.410E-01    0.832E-02
DAV:   6    -0.132376462750E+03    0.91486E-03   -0.19533E-03  7640   0.294E-01    0.559E-02
DAV:   7    -0.132375131813E+03    0.13309E-02   -0.91560E-04 10750   0.416E-01    0.424E-02
DAV:   8    -0.132374546680E+03    0.58513E-03   -0.94661E-04  7086   0.221E-01    0.372E-02
DAV:   9    -0.132373953503E+03    0.59318E-03   -0.42526E-04  9488   0.229E-01    0.282E-02
DAV:  10    -0.132372789087E+03    0.11644E-02   -0.11927E-03  9472   0.546E-01    0.419E-02
DAV:  11    -0.132372537592E+03    0.25150E-03   -0.13672E-03  7416   0.268E-01    0.305E-02
DAV:  12    -0.132372471658E+03    0.65934E-04   -0.12252E-03  7002   0.189E-01    0.399E-02
DAV:  13    -0.132372313740E+03    0.15792E-03   -0.15776E-04  8890   0.149E-01    0.250E-02
DAV:  14    -0.132372248599E+03    0.65141E-04   -0.19432E-04  7248   0.988E-02    0.905E-03
DAV:  15    -0.132372206893E+03    0.41707E-04   -0.11165E-04  7126   0.694E-02    0.141E-02
DAV:  16    -0.132372161761E+03    0.45132E-04   -0.62663E-05  7500   0.848E-02    0.120E-02
DAV:  17    -0.132372153397E+03    0.83640E-05   -0.77093E-05  6474   0.483E-02
  52 F= -.13237215E+03 E0= -.13236858E+03  d E =-.387197E-01
       N       E                     dE             d eps       ncg     rms          rms(c)
DAV:   1    -0.132394683018E+03   -0.22521E-01   -0.40174E+00  6444   0.827E+00    0.386E-01
DAV:   2    -0.132398744616E+03   -0.40616E-02   -0.12077E-01  6708   0.135E+00    0.219E-01
DAV:   3    -0.132397321536E+03    0.14231E-02   -0.70957E-03  7458   0.361E-01    0.155E-01
DAV:   4    -0.132396634360E+03    0.68718E-03   -0.21812E-03  7072   0.197E-01    0.106E-01
DAV:   5    -0.132395701383E+03    0.93298E-03   -0.11705E-03  7640   0.235E-01    0.506E-02
DAV:   6    -0.132395050072E+03    0.65131E-03   -0.69424E-04  8478   0.262E-01    0.281E-02
DAV:   7    -0.132394589371E+03    0.46070E-03   -0.51972E-04  8994   0.252E-01    0.219E-02
DAV:   8    -0.132394349683E+03    0.23969E-03   -0.42799E-04  7648   0.182E-01    0.209E-02
DAV:   9    -0.132394033853E+03    0.31583E-03   -0.22582E-04  9918   0.232E-01    0.130E-02
DAV:  10    -0.132393826326E+03    0.20753E-03   -0.33365E-04  8226   0.229E-01    0.196E-02
DAV:  11    -0.132393791053E+03    0.35273E-04   -0.33661E-04  7080   0.131E-01    0.154E-02
DAV:  12    -0.132393781084E+03    0.99693E-05   -0.25737E-04  6806   0.864E-02    0.186E-02
DAV:  13    -0.132393731158E+03    0.49925E-04   -0.42938E-05  6634   0.106E-01    0.143E-02
DAV:  14    -0.132393710678E+03    0.20480E-04   -0.61945E-05  6934   0.687E-02    0.913E-03
DAV:  15    -0.132393702141E+03    0.85368E-05   -0.36669E-05  6482   0.295E-02
  53 F= -.13239370E+03 E0= -.13239056E+03  d E =-.602684E-01
       N       E                     dE             d eps       ncg     rms          rms(c)
DAV:   1    -0.132404022327E+03   -0.10312E-01   -0.37435E-01  6412   0.264E+00    0.962E-02
DAV:   2    -0.132404666826E+03   -0.64450E-03   -0.97280E-03  6728   0.398E-01    0.631E-02
DAV:   3    -0.132404560428E+03    0.10640E-03   -0.49809E-04  7448   0.890E-02    0.455E-02
DAV:   4    -0.132404522124E+03    0.38304E-04   -0.15227E-04  6912   0.478E-02    0.303E-02
DAV:   5    -0.132404464647E+03    0.57476E-04   -0.62872E-05  6634   0.595E-02    0.137E-02
DAV:   6    -0.132404424704E+03    0.39944E-04   -0.46218E-05  6538   0.596E-02    0.647E-03
DAV:   7    -0.132404394149E+03    0.30555E-04   -0.22640E-05  5390   0.519E-02    0.570E-03
DAV:   8    -0.132404358475E+03    0.35674E-04   -0.80824E-06  4618   0.577E-02    0.521E-03
DAV:   9    -0.132404314213E+03    0.44262E-04   -0.31564E-05  6224   0.830E-02    0.531E-03
DAV:  10    -0.132404268146E+03    0.46067E-04   -0.67402E-05  7488   0.135E-01    0.609E-03
DAV:  11    -0.132404265713E+03    0.24333E-05   -0.10819E-04  6756   0.741E-02    0.495E-03
DAV:  12    -0.132404269575E+03   -0.38628E-05   -0.52299E-05  5812   0.283E-02
  54 F= -.13240427E+03 E0= -.13240079E+03  d E =-.105674E-01
       N       E                     dE             d eps       ncg     rms          rms(c)
DAV:   1    -0.132420577262E+03   -0.16312E-01   -0.33704E+00  6380   0.795E+00    0.301E-01
DAV:   2    -0.132426199505E+03   -0.56222E-02   -0.88191E-02  6726   0.121E+00    0.190E-01
DAV:   3    -0.132425359468E+03    0.84004E-03   -0.33366E-03  7388   0.265E-01    0.139E-01
DAV:   4    -0.132425039199E+03    0.32027E-03   -0.17558E-03  7058   0.170E-01    0.836E-02
DAV:   5    -0.132424676614E+03    0.36259E-03   -0.91745E-04  7290   0.174E-01    0.345E-02
DAV:   6    -0.132424522179E+03    0.15443E-03   -0.29262E-04  7572   0.123E-01    0.178E-02
DAV:   7    -0.132424370859E+03    0.15132E-03   -0.10166E-04  7854   0.109E-01    0.166E-02
DAV:   8    -0.132424270331E+03    0.10053E-03   -0.10129E-04  7080   0.888E-02    0.150E-02
DAV:   9    -0.132424108165E+03    0.16217E-03   -0.73199E-05  7890   0.123E-01    0.114E-02
DAV:  10    -0.132423774255E+03    0.33391E-03   -0.28444E-04  8994   0.315E-01    0.180E-02
DAV:  11    -0.132423719272E+03    0.54983E-04   -0.33812E-04  7030   0.138E-01    0.182E-02
DAV:  12    -0.132423717650E+03    0.16218E-05   -0.21672E-04  6704   0.672E-02    0.125E-02
DAV:  13    -0.132423665315E+03    0.52336E-04   -0.73906E-05  7724   0.157E-01    0.127E-02
DAV:  14    -0.132423651886E+03    0.13429E-04   -0.80681E-05  7474   0.101E-01    0.945E-03
DAV:  15    -0.132423652635E+03   -0.74909E-06   -0.66540E-05  5986   0.406E-02
  55 F= -.13242365E+03 E0= -.13241985E+03  d E =-.299505E-01
       N       E                     dE             d eps       ncg     rms          rms(c)
DAV:   1    -0.132384429695E+03    0.39222E-01   -0.13473E+01  6452   0.159E+01    0.619E-01
DAV:   2    -0.132408779997E+03   -0.24350E-01   -0.35838E-01  6820   0.245E+00    0.384E-01
DAV:   3    -0.132405627605E+03    0.31524E-02   -0.89722E-03  7254   0.520E-01    0.281E-01
DAV:   4    -0.132403503522E+03    0.21241E-02   -0.10653E-02  7028   0.601E-01    0.112E-01
DAV:   5    -0.132403128483E+03    0.37504E-03   -0.33461E-03  7138   0.264E-01    0.902E-02
DAV:   6    -0.132402693697E+03    0.43479E-03   -0.11055E-03  7296   0.167E-01    0.457E-02
DAV:   7    -0.132402004337E+03    0.68936E-03   -0.36062E-04  7614   0.217E-01    0.415E-02
DAV:   8    -0.132401633518E+03    0.37082E-03   -0.31472E-04  7762   0.163E-01    0.318E-02
DAV:   9    -0.132400879680E+03    0.75384E-03   -0.61246E-04  9656   0.330E-01    0.327E-02
DAV:  10    -0.132399893122E+03    0.98656E-03   -0.85025E-04  8856   0.498E-01    0.459E-02
DAV:  11    -0.132399376919E+03    0.51620E-03   -0.13221E-03  7796   0.399E-01    0.336E-02
DAV:  12    -0.132399323244E+03    0.53675E-04   -0.12094E-03  7008   0.218E-01    0.218E-02
DAV:  13    -0.132399296101E+03    0.27143E-04   -0.23258E-04  7110   0.115E-01    0.222E-02
DAV:  14    -0.132399262764E+03    0.33337E-04   -0.79735E-05  7140   0.102E-01    0.939E-03
DAV:  15    -0.132399254680E+03    0.80840E-05   -0.12092E-04  6558   0.664E-02    0.966E-03
DAV:  16    -0.132399243742E+03    0.10938E-04   -0.38685E-05  5902   0.535E-02    0.524E-03
DAV:  17    -0.132399234107E+03    0.96349E-05   -0.89910E-06  4608   0.533E-02
  56 F= -.13239923E+03 E0= -.13239628E+03  d E =-.553197E-02
       N       E                     dE             d eps       ncg     rms          rms(c)
DAV:   1    -0.132417887943E+03   -0.18644E-01   -0.82468E+00  6412   0.123E+01    0.447E-01
DAV:   2    -0.132432327546E+03   -0.14440E-01   -0.22379E-01  6696   0.187E+00    0.304E-01
DAV:   3    -0.132430201689E+03    0.21259E-02   -0.10693E-02  7380   0.391E-01    0.219E-01
DAV:   4    -0.132429455985E+03    0.74570E-03   -0.38504E-03  6998   0.231E-01    0.140E-01
DAV:   5    -0.132428479326E+03    0.97666E-03   -0.24121E-03  7304   0.265E-01    0.558E-02
DAV:   6    -0.132428102153E+03    0.37717E-03   -0.90891E-04  7576   0.192E-01    0.284E-02
DAV:   7    -0.132427807893E+03    0.29426E-03   -0.33388E-04  7286   0.137E-01    0.247E-02
DAV:   8    -0.132427574368E+03    0.23353E-03   -0.14744E-04  7704   0.109E-01    0.207E-02
DAV:   9    -0.132427012404E+03    0.56196E-03   -0.27905E-04  9616   0.241E-01    0.201E-02
DAV:  10    -0.132426439435E+03    0.57297E-03   -0.51270E-04  8304   0.352E-01    0.237E-02
DAV:  11    -0.132426192299E+03    0.24714E-03   -0.85779E-04  8746   0.329E-01    0.221E-02
DAV:  12    -0.132426096572E+03    0.95727E-04   -0.47896E-04  8016   0.282E-01    0.205E-02
DAV:  13    -0.132426125263E+03   -0.28691E-04   -0.60676E-04  6822   0.104E-01    0.248E-02
DAV:  14    -0.132426112556E+03    0.12707E-04   -0.81172E-05  6538   0.423E-02    0.109E-02
DAV:  15    -0.132426102884E+03    0.96716E-05   -0.46107E-06  3994   0.275E-02
  57 F= -.13242610E+03 E0= -.13242258E+03  d E =-.324007E-01
       N       E                     dE             d eps       ncg     rms          rms(c)
DAV:   1    -0.132434316101E+03   -0.82035E-02   -0.18576E+00  6260   0.595E+00    0.202E-01
DAV:   2    -0.132438147303E+03   -0.38312E-02   -0.47230E-02  6832   0.880E-01    0.131E-01
DAV:   3    -0.132437683397E+03    0.46391E-03   -0.11585E-03  7130   0.157E-01    0.943E-02
DAV:   4    -0.132437519519E+03    0.16388E-03   -0.44828E-04  6954   0.892E-02    0.626E-02
DAV:   5    -0.132437223302E+03    0.29622E-03   -0.33395E-04  7366   0.134E-01    0.255E-02
DAV:   6    -0.132437097516E+03    0.12579E-03   -0.23637E-04  7264   0.102E-01    0.140E-02
DAV:   7    -0.132436997940E+03    0.99576E-04   -0.11823E-04  7004   0.784E-02    0.153E-02
DAV:   8    -0.132436905199E+03    0.92741E-04   -0.31990E-05  5162   0.655E-02    0.132E-02
DAV:   9    -0.132436591990E+03    0.31321E-03   -0.18463E-04  8684   0.239E-01    0.154E-02
DAV:  10    -0.132436442613E+03    0.14938E-03   -0.22269E-04  8098   0.190E-01    0.131E-02
DAV:  11    -0.132436323179E+03    0.11943E-03   -0.25910E-04  9036   0.271E-01    0.139E-02
DAV:  12    -0.132436320239E+03    0.29400E-05   -0.37985E-04  7502   0.169E-01    0.129E-02
DAV:  13    -0.132436338239E+03   -0.18001E-04   -0.21094E-04  6436   0.511E-02    0.216E-02
DAV:  14    -0.132436340529E+03   -0.22894E-05   -0.74303E-06  3824   0.206E-02
  58 F= -.13243634E+03 E0= -.13243291E+03  d E =-.102376E-01
       N       E                     dE             d eps       ncg     rms          rms(c)
DAV:   1    -0.132436856049E+03   -0.51781E-03   -0.13725E+00  6276   0.513E+00    0.177E-01
DAV:   2    -0.132439677219E+03   -0.28212E-02   -0.34877E-02  6832   0.762E-01    0.114E-01
DAV:   3    -0.132439359716E+03    0.31750E-03   -0.81060E-04  7200   0.137E-01    0.826E-02
DAV:   4    -0.132439234622E+03    0.12509E-03   -0.37249E-04  7008   0.850E-02    0.517E-02
DAV:   5    -0.132439058761E+03    0.17586E-03   -0.24111E-04  7268   0.112E-01    0.224E-02
DAV:   6    -0.132438990164E+03    0.68598E-04   -0.15732E-04  7094   0.721E-02    0.134E-02
DAV:   7    -0.132438931961E+03    0.58202E-04   -0.41305E-05  5060   0.454E-02    0.980E-03
DAV:   8    -0.132438855454E+03    0.76507E-04   -0.42515E-05  5140   0.631E-02    0.100E-02
DAV:   9    -0.132438768466E+03    0.86988E-04   -0.34960E-05  6296   0.832E-02    0.114E-02
DAV:  10    -0.132438570715E+03    0.19775E-03   -0.20014E-04  9644   0.262E-01    0.124E-02
DAV:  11    -0.132438478680E+03    0.92036E-04   -0.30773E-04  7950   0.229E-01    0.105E-02
DAV:  12    -0.132438490762E+03   -0.12082E-04   -0.26328E-04  6890   0.793E-02    0.775E-03
DAV:  13    -0.132438494474E+03   -0.37117E-05   -0.41061E-05  5578   0.227E-02
  59 F= -.13243849E+03 E0= -.13243503E+03  d E =-.123916E-01
       N       E                     dE             d eps       ncg     rms          rms(c)
DAV:   1    -0.132443713616E+03   -0.52229E-02   -0.82016E-01  6424   0.392E+00    0.146E-01
DAV:   2    -0.132445150827E+03   -0.14372E-02   -0.18995E-02  6904   0.577E-01    0.842E-02
DAV:   3    -0.132445003782E+03    0.14704E-03   -0.70322E-04  7460   0.122E-01    0.626E-02
DAV:   4    -0.132444937389E+03    0.66393E-04   -0.31596E-04  7028   0.732E-02    0.432E-02
DAV:   5    -0.132444851344E+03    0.86045E-04   -0.16763E-04  6894   0.780E-02    0.212E-02
DAV:   6    -0.132444822334E+03    0.29010E-04   -0.73462E-05  6784   0.613E-02    0.131E-02
DAV:   7    -0.132444780794E+03    0.41540E-04   -0.30108E-05  5990   0.835E-02    0.730E-03
DAV:   8    -0.132444766836E+03    0.13958E-04   -0.56092E-05  6354   0.471E-02    0.114E-02
DAV:   9    -0.132444754238E+03    0.12598E-04   -0.27426E-05  5416   0.294E-02    0.584E-03
DAV:  10    -0.132444722509E+03    0.31729E-04   -0.11644E-04  7408   0.104E-01    0.291E-02
DAV:  11    -0.132444699563E+03    0.22946E-04   -0.32897E-05  6372   0.661E-02    0.257E-02
DAV:  12    -0.132444684558E+03    0.15006E-04   -0.70744E-05  5974   0.556E-02    0.101E-02
DAV:  13    -0.132444678553E+03    0.60041E-05   -0.15984E-05  4820   0.400E-02
  60 F= -.13244468E+03 E0= -.13244116E+03  d E =-.618408E-02
       N       E                     dE             d eps       ncg     rms          rms(c)
DAV:   1    -0.132444534560E+03    0.15000E-03   -0.21714E+00  6394   0.641E+00    0.250E-01
DAV:   2    -0.132448368457E+03   -0.38339E-02   -0.52214E-02  6884   0.970E-01    0.145E-01
DAV:   3    -0.132447853915E+03    0.51454E-03   -0.24355E-03  7272   0.202E-01    0.104E-01
DAV:   4    -0.132447663838E+03    0.19008E-03   -0.66876E-04  7324   0.110E-01    0.793E-02
DAV:   5    -0.132447418029E+03    0.24581E-03   -0.26835E-04  7068   0.112E-01    0.406E-02
DAV:   6    -0.132447284862E+03    0.13317E-03   -0.17387E-04  7470   0.131E-01    0.191E-02
DAV:   7    -0.132447186240E+03    0.98622E-04   -0.13547E-04  8422   0.122E-01    0.135E-02
DAV:   8    -0.132447105130E+03    0.81110E-04   -0.69638E-05  6846   0.105E-01    0.101E-02
DAV:   9    -0.132447027903E+03    0.77228E-04   -0.37597E-05  5744   0.993E-02    0.870E-03
DAV:  10    -0.132446923312E+03    0.10459E-03   -0.69234E-05  7676   0.149E-01    0.844E-03
DAV:  11    -0.132446834167E+03    0.89145E-04   -0.16475E-04  8344   0.203E-01    0.112E-02
DAV:  12    -0.132446828080E+03    0.60864E-05   -0.22043E-04  7186   0.120E-01    0.705E-03
DAV:  13    -0.132446838403E+03   -0.10323E-04   -0.12698E-04  6172   0.399E-02    0.132E-02
DAV:  14    -0.132446832946E+03    0.54573E-05   -0.22695E-05  4844   0.274E-02
  61 F= -.13244683E+03 E0= -.13244314E+03  d E =-.833847E-02
       N       E                     dE             d eps       ncg     rms          rms(c)
DAV:   1    -0.132450255118E+03   -0.34167E-02   -0.10237E+00  6366   0.446E+00    0.175E-01
DAV:   2    -0.132452269704E+03   -0.20146E-02   -0.26498E-02  6836   0.684E-01    0.105E-01
DAV:   3    -0.132451927487E+03    0.34222E-03   -0.10819E-03  7056   0.128E-01    0.740E-02
DAV:   4    -0.132451825397E+03    0.10209E-03   -0.31551E-04  7406   0.783E-02    0.569E-02
DAV:   5    -0.132451697862E+03    0.12754E-03   -0.12900E-04  7148   0.939E-02    0.286E-02
DAV:   6    -0.132451633167E+03    0.64695E-04   -0.12909E-04  7778   0.100E-01    0.124E-02
DAV:   7    -0.132451604738E+03    0.28429E-04   -0.11498E-04  6982   0.782E-02    0.967E-03
DAV:   8    -0.132451594508E+03    0.10230E-04   -0.53685E-05  5868   0.415E-02    0.115E-02
DAV:   9    -0.132451589026E+03    0.54817E-05   -0.73378E-06  3680   0.134E-02
  62 F= -.13245159E+03 E0= -.13244782E+03  d E =-.475608E-02
       N       E                     dE             d eps       ncg     rms          rms(c)
DAV:   1    -0.132451698921E+03   -0.10441E-03   -0.12711E+00  6256   0.497E+00    0.200E-01
DAV:   2    -0.132454477013E+03   -0.27781E-02   -0.34558E-02  6850   0.778E-01    0.133E-01
DAV:   3    -0.132453593947E+03    0.88307E-03   -0.24235E-03  6890   0.162E-01    0.844E-02
DAV:   4    -0.132453444378E+03    0.14957E-03   -0.40654E-04  7296   0.943E-02    0.644E-02
DAV:   5    -0.132453289046E+03    0.15533E-03   -0.13455E-04  7316   0.973E-02    0.366E-02
DAV:   6    -0.132453163520E+03    0.12553E-03   -0.14934E-04  8088   0.141E-01    0.129E-02
DAV:   7    -0.132453113762E+03    0.49758E-04   -0.19303E-04  7332   0.114E-01    0.117E-02
DAV:   8    -0.132453111333E+03    0.24291E-05   -0.12570E-04  6588   0.508E-02    0.171E-02
DAV:   9    -0.132453109995E+03    0.13379E-05   -0.58784E-06  3686   0.106E-02
  63 F= -.13245311E+03 E0= -.13244936E+03  d E =-.627705E-02
       N       E                     dE             d eps       ncg     rms          rms(c)
DAV:   1    -0.132454686250E+03   -0.15749E-02   -0.55251E-01  6380   0.309E+00    0.924E-02
DAV:   2    -0.132455650394E+03   -0.96414E-03   -0.11634E-02  6850   0.423E-01    0.610E-02
DAV:   3    -0.132455534799E+03    0.11559E-03   -0.39843E-04  7116   0.836E-02    0.441E-02
DAV:   4    -0.132455491203E+03    0.43596E-04   -0.12025E-04  6856   0.447E-02    0.309E-02
DAV:   5    -0.132455402215E+03    0.88988E-04   -0.10261E-04  6472   0.871E-02    0.133E-02
DAV:   6    -0.132455380185E+03    0.22030E-04   -0.80722E-05  6850   0.557E-02    0.824E-03
DAV:   7    -0.132455367657E+03    0.12528E-04   -0.34078E-05  4848   0.391E-02    0.744E-03
DAV:   8    -0.132455338883E+03    0.28774E-04   -0.11582E-05  4832   0.563E-02    0.897E-03
DAV:   9    -0.132455317015E+03    0.21868E-04   -0.16268E-05  4904   0.481E-02    0.822E-03
DAV:  10    -0.132455283717E+03    0.33298E-04   -0.31092E-05  6260   0.829E-02    0.530E-03
DAV:  11    -0.132455247738E+03    0.35979E-04   -0.50057E-05  7340   0.134E-01    0.773E-03
DAV:  12    -0.132455245708E+03    0.20306E-05   -0.82452E-05  6562   0.590E-02
  64 F= -.13245525E+03 E0= -.13245150E+03  d E =-.213571E-02
       N       E                     dE             d eps       ncg     rms          rms(c)
DAV:   1    -0.132455310006E+03   -0.62267E-04   -0.53075E-01  6180   0.304E+00    0.862E-02
DAV:   2    -0.132456235077E+03   -0.92507E-03   -0.10917E-02  6792   0.414E-01    0.624E-02
DAV:   3    -0.132456116309E+03    0.11877E-03   -0.23265E-04  7100   0.780E-02    0.442E-02
DAV:   4    -0.132456072049E+03    0.44260E-04   -0.11251E-04  6770   0.448E-02    0.306E-02
DAV:   5    -0.132455982841E+03    0.89208E-04   -0.96160E-05  6394   0.760E-02    0.132E-02
DAV:   6    -0.132455953645E+03    0.29196E-04   -0.64411E-05  6582   0.535E-02    0.763E-03
DAV:   7    -0.132455931952E+03    0.21693E-04   -0.34083E-05  4950   0.455E-02    0.745E-03
DAV:   8    -0.132455905952E+03    0.26000E-04   -0.10404E-05  4366   0.449E-02    0.760E-03
DAV:   9    -0.132455868686E+03    0.37266E-04   -0.13905E-05  4956   0.650E-02    0.695E-03
DAV:  10    -0.132455792402E+03    0.76284E-04   -0.10017E-04  8068   0.173E-01    0.710E-03
DAV:  11    -0.132455777799E+03    0.14603E-04   -0.10623E-04  7616   0.978E-02    0.584E-03
DAV:  12    -0.132455783478E+03   -0.56796E-05   -0.91994E-05  6092   0.393E-02
  65 F= -.13245578E+03 E0= -.13245206E+03  d E =-.267348E-02
       N       E                     dE             d eps       ncg     rms          rms(c)
DAV:   1    -0.132456891711E+03   -0.11139E-02   -0.25159E-01  6192   0.215E+00    0.663E-02
DAV:   2    -0.132457400469E+03   -0.50876E-03   -0.58546E-03  6760   0.312E-01    0.462E-02
DAV:   3    -0.132457359536E+03    0.40933E-04   -0.13712E-04  7068   0.572E-02    0.349E-02
DAV:   4    -0.132457343377E+03    0.16159E-04   -0.67462E-05  6714   0.347E-02    0.220E-02
DAV:   5    -0.132457319184E+03    0.24193E-04   -0.67010E-05  6234   0.543E-02    0.100E-02
DAV:   6    -0.132457318039E+03    0.11450E-05   -0.31046E-05  5612   0.278E-02
  66 F= -.13245732E+03 E0= -.13245364E+03  d E =-.153456E-02
       N       E                     dE             d eps       ncg     rms          rms(c)
DAV:   1    -0.132457029477E+03    0.28971E-03   -0.80042E-01  6132   0.384E+00    0.122E-01
DAV:   2    -0.132458666705E+03   -0.16372E-02   -0.19117E-02  6750   0.564E-01    0.823E-02
DAV:   3    -0.132458526453E+03    0.14025E-03   -0.44657E-04  7196   0.110E-01    0.625E-02
DAV:   4    -0.132458462911E+03    0.63543E-04   -0.23985E-04  6908   0.698E-02    0.382E-02
DAV:   5    -0.132458356575E+03    0.10634E-03   -0.23876E-04  7440   0.117E-01    0.215E-02
DAV:   6    -0.132458344774E+03    0.11801E-04   -0.12181E-04  6562   0.585E-02    0.221E-02
DAV:   7    -0.132458322203E+03    0.22572E-04   -0.63742E-05  6102   0.511E-02    0.841E-03
DAV:   8    -0.132458288485E+03    0.33717E-04   -0.10326E-05  4530   0.660E-02    0.624E-03
DAV:   9    -0.132458278477E+03    0.10008E-04   -0.30544E-05  5516   0.335E-02    0.730E-03
DAV:  10    -0.132458251613E+03    0.26864E-04   -0.51503E-06  4604   0.572E-02    0.531E-03
DAV:  11    -0.132458199271E+03    0.52342E-04   -0.10252E-04  8252   0.166E-01    0.144E-02
DAV:  12    -0.132458197691E+03    0.15800E-05   -0.73624E-05  6204   0.358E-02
  67 F= -.13245820E+03 E0= -.13245457E+03  d E =-.241421E-02
       N       E                     dE             d eps       ncg     rms          rms(c)
DAV:   1    -0.132459126572E+03   -0.92730E-03   -0.18159E-01  6108   0.182E+00    0.596E-02
DAV:   2    -0.132459450680E+03   -0.32411E-03   -0.43631E-03  6806   0.271E-01    0.375E-02
DAV:   3    -0.132459411182E+03    0.39498E-04   -0.12706E-04  7036   0.586E-02    0.279E-02
DAV:   4    -0.132459389651E+03    0.21531E-04   -0.44197E-05  6042   0.302E-02    0.185E-02
DAV:   5    -0.132459346313E+03    0.43338E-04   -0.44302E-05  6124   0.570E-02    0.969E-03
DAV:   6    -0.132459327887E+03    0.18426E-04   -0.28169E-05  5584   0.442E-02    0.905E-03
DAV:   7    -0.132459308834E+03    0.19053E-04   -0.23332E-05  5484   0.546E-02    0.508E-03
DAV:   8    -0.132459288795E+03    0.20038E-04   -0.13138E-05  4518   0.615E-02    0.572E-03
DAV:   9    -0.132459270338E+03    0.18458E-04   -0.23108E-05  5388   0.669E-02    0.604E-03
DAV:  10    -0.132459249356E+03    0.20982E-04   -0.17827E-05  5372   0.943E-02    0.316E-03
DAV:  11    -0.132459246327E+03    0.30290E-05   -0.49773E-05  6514   0.632E-02
  68 F= -.13245925E+03 E0= -.13245564E+03  d E =-.104864E-02
       N       E                     dE             d eps       ncg     rms          rms(c)
DAV:   1    -0.132459363325E+03   -0.11397E-03   -0.59533E-02  6184   0.105E+00    0.327E-02
DAV:   2    -0.132459473676E+03   -0.11035E-03   -0.14171E-03  6810   0.151E-01    0.216E-02
DAV:   3    -0.132459461012E+03    0.12665E-04   -0.25997E-05  5344   0.283E-02    0.159E-02
DAV:   4    -0.132459453927E+03    0.70846E-05   -0.17082E-05  3892   0.204E-02    0.101E-02
DAV:   5    -0.132459441102E+03    0.12825E-04   -0.16395E-05  4282   0.395E-02    0.517E-03
DAV:   6    -0.132459439940E+03    0.11618E-05   -0.14788E-05  3642   0.178E-02
  69 F= -.13245944E+03 E0= -.13245585E+03  d E =-.124225E-02
       N       E                     dE             d eps       ncg     rms          rms(c)
DAV:   1    -0.132459887074E+03   -0.44597E-03   -0.33670E-01  6236   0.248E+00    0.742E-02
DAV:   2    -0.132460570243E+03   -0.68317E-03   -0.75377E-03  6730   0.338E-01    0.429E-02
DAV:   3    -0.132460529045E+03    0.41198E-04   -0.76263E-05  7308   0.407E-02    0.293E-02
DAV:   4    -0.132460506146E+03    0.22898E-04   -0.12074E-04  6736   0.480E-02    0.135E-02
DAV:   5    -0.132460498809E+03    0.73375E-05   -0.60661E-05  5942   0.281E-02    0.107E-02
DAV:   6    -0.132460497217E+03    0.15917E-05   -0.58910E-06  3632   0.130E-02
  70 F= -.13246050E+03 E0= -.13245692E+03  d E =-.105728E-02
       N       E                     dE             d eps       ncg     rms          rms(c)
DAV:   1    -0.132459499146E+03    0.99966E-03   -0.86459E-01  6196   0.397E+00    0.118E-01
DAV:   2    -0.132461236677E+03   -0.17375E-02   -0.19365E-02  6754   0.546E-01    0.691E-02
DAV:   3    -0.132461115428E+03    0.12125E-03   -0.19374E-04  7276   0.720E-02    0.480E-02
DAV:   4    -0.132460992335E+03    0.12309E-03   -0.33121E-04  6918   0.107E-01    0.194E-02
DAV:   5    -0.132460977319E+03    0.15017E-04   -0.17472E-04  6910   0.551E-02    0.202E-02
DAV:   6    -0.132460967080E+03    0.10238E-04   -0.25737E-05  4586   0.252E-02    0.124E-02
DAV:   7    -0.132460945734E+03    0.21346E-04   -0.10449E-05  4274   0.272E-02    0.718E-03
DAV:   8    -0.132460899006E+03    0.46728E-04   -0.46561E-05  6726   0.801E-02    0.139E-02
DAV:   9    -0.132460881587E+03    0.17419E-04   -0.39258E-05  5888   0.436E-02    0.183E-02
DAV:  10    -0.132460840949E+03    0.40639E-04   -0.95121E-05  7692   0.999E-02    0.131E-02
[...]
DAV:   8    -0.132468371406E+03    0.63969E-04   -0.71302E-05  8116   0.126E-01    0.112E-02
DAV:   9    -0.132468298386E+03    0.73019E-04   -0.68088E-05  7696   0.155E-01    0.968E-03
DAV:  10    -0.132468258174E+03    0.40212E-04   -0.11541E-04  7228   0.137E-01    0.733E-03
DAV:  11    -0.132468259310E+03   -0.11359E-05   -0.12058E-04  6672   0.762E-02    0.649E-03
DAV:  12    -0.132468262985E+03   -0.36750E-05   -0.47115E-05  5586   0.246E-02
  93 F= -.13246826E+03 E0= -.13246471E+03  d E =-.190012E-03
       N       E                     dE             d eps       ncg     rms          rms(c)
DAV:   1    -0.132468487674E+03   -0.22836E-03   -0.15328E-02  6220   0.533E-01    0.198E-02
DAV:   2    -0.132468505698E+03   -0.18024E-04   -0.41709E-04  6876   0.882E-02    0.141E-02
DAV:   3    -0.132468496911E+03    0.87864E-05   -0.57439E-05  6032   0.295E-02    0.114E-02
DAV:   4    -0.132468492797E+03    0.41146E-05   -0.51733E-06  3656   0.116E-02    0.897E-03
DAV:   5    -0.132468479693E+03    0.13104E-04   -0.81069E-06  4256   0.300E-02    0.505E-03
DAV:   6    -0.132468469440E+03    0.10253E-04   -0.84889E-06  4410   0.341E-02    0.509E-03
DAV:   7    -0.132468466196E+03    0.32440E-05   -0.11637E-05  3772   0.218E-02
  94 F= -.13246847E+03 E0= -.13246489E+03  d E =-.393222E-03
       N       E                     dE             d eps       ncg     rms          rms(c)
DAV:   1    -0.132468491046E+03   -0.21607E-04   -0.37997E-03  6400   0.271E-01    0.110E-02
DAV:   2    -0.132468496168E+03   -0.51216E-05   -0.16527E-04  6972   0.551E-02    0.113E-02
DAV:   3    -0.132468488248E+03    0.79201E-05   -0.19942E-05  4210   0.166E-02    0.790E-03
DAV:   4    -0.132468486844E+03    0.14039E-05   -0.17042E-06  3608   0.581E-03    0.721E-03
DAV:   5    -0.132468476738E+03    0.10106E-04   -0.48512E-06  3848   0.187E-02    0.461E-03
DAV:   6    -0.132468463608E+03    0.13129E-04   -0.59559E-06  4274   0.336E-02    0.602E-03
DAV:   7    -0.132468451984E+03    0.11625E-04   -0.10802E-05  4468   0.424E-02    0.449E-03
DAV:   8    -0.132468432995E+03    0.18988E-04   -0.23205E-05  5996   0.923E-02    0.523E-03
DAV:   9    -0.132468426478E+03    0.65170E-05   -0.38039E-05  6052   0.586E-02
  95 F= -.13246843E+03 E0= -.13246486E+03  d E =-.353505E-03
       N       E                     dE             d eps       ncg     rms          rms(c)
DAV:   1    -0.132468437723E+03   -0.47274E-05   -0.47352E-04  6436   0.944E-02    0.440E-03
DAV:   2    -0.132468437535E+03    0.18797E-06   -0.13806E-05  4126   0.172E-02    0.390E-03
DAV:   3    -0.132468437137E+03    0.39793E-06   -0.34840E-06  3584   0.830E-03    0.271E-03
DAV:   4    -0.132468436856E+03    0.28053E-06   -0.96274E-07  3410   0.567E-03    0.176E-03
DAV:   5    -0.132468436533E+03    0.32282E-06   -0.52208E-07  3326   0.597E-03    0.100E-03
DAV:   6    -0.132468436193E+03    0.34047E-06   -0.30491E-07  3576   0.812E-03
  96 F= -.13246844E+03 E0= -.13246488E+03  d E =-.363219E-03
       N       E                     dE             d eps       ncg     rms          rms(c)
DAV:   1    -0.132468442292E+03   -0.57585E-05   -0.39454E-04  6134   0.864E-02    0.339E-03
DAV:   2    -0.132468442753E+03   -0.46064E-06   -0.12225E-05  3950   0.156E-02    0.226E-03
DAV:   3    -0.132468442494E+03    0.25845E-06   -0.25348E-06  3374   0.596E-03    0.193E-03
DAV:   4    -0.132468442356E+03    0.13762E-06   -0.27327E-07  3146   0.249E-03    0.173E-03
DAV:   5    -0.132468442031E+03    0.32596E-06   -0.18527E-07  3164   0.354E-03    0.968E-04
DAV:   6    -0.132468441502E+03    0.52861E-06   -0.37678E-07  3588   0.778E-03
  97 F= -.13246844E+03 E0= -.13246489E+03  d E =-.368528E-03
       N       E                     dE             d eps       ncg     rms          rms(c)
DAV:   1    -0.132468595371E+03   -0.15334E-03   -0.97057E-03  6268   0.416E-01    0.140E-02
DAV:   2    -0.132468611023E+03   -0.15652E-04   -0.23260E-04  6992   0.637E-02    0.998E-03
DAV:   3    -0.132468606379E+03    0.46440E-05   -0.13945E-05  4010   0.180E-02    0.712E-03
DAV:   4    -0.132468604531E+03    0.18474E-05   -0.31132E-06  3578   0.893E-03    0.554E-03
DAV:   5    -0.132468599684E+03    0.48474E-05   -0.25843E-06  4008   0.163E-02    0.349E-03
DAV:   6    -0.132468594668E+03    0.50160E-05   -0.42383E-06  4180   0.253E-02
  98 F= -.13246859E+03 E0= -.13246505E+03  d E =-.153166E-03
       N       E                     dE             d eps       ncg     rms          rms(c)
DAV:   1    -0.132468659201E+03   -0.59518E-04   -0.51276E-02  6228   0.958E-01    0.323E-02
DAV:   2    -0.132468731123E+03   -0.71921E-04   -0.12320E-03  7032   0.154E-01    0.233E-02
DAV:   3    -0.132468703081E+03    0.28042E-04   -0.11019E-04  6940   0.514E-02    0.179E-02
DAV:   4    -0.132468690100E+03    0.12981E-04   -0.14657E-05  3966   0.208E-02    0.141E-02
DAV:   5    -0.132468653556E+03    0.36544E-04   -0.14576E-05  4642   0.460E-02    0.912E-03
DAV:   6    -0.132468606325E+03    0.47231E-04   -0.47319E-05  6846   0.886E-02    0.910E-03
DAV:   7    -0.132468599233E+03    0.70918E-05   -0.43940E-05  5970   0.375E-02
  99 F= -.13246860E+03 E0= -.13246506E+03  d E =-.157731E-03
       N       E                     dE             d eps       ncg     rms          rms(c)
DAV:   1    -0.132468615134E+03   -0.88089E-05   -0.51362E-03  6300   0.306E-01    0.116E-02
DAV:   2    -0.132468624184E+03   -0.90503E-05   -0.12811E-04  6928   0.469E-02    0.955E-03
DAV:   3    -0.132468621792E+03    0.23924E-05   -0.44501E-06  3604   0.958E-03    0.598E-03
DAV:   4    -0.132468619591E+03    0.22010E-05   -0.54377E-06  3578   0.114E-02    0.253E-03
DAV:   5    -0.132468618495E+03    0.10959E-05   -0.28547E-06  3626   0.810E-03    0.212E-03
DAV:   6    -0.132468617550E+03    0.94445E-06   -0.47885E-07  3524   0.834E-03
 100 F= -.13246862E+03 E0= -.13246506E+03  d E =-.176048E-03
       N       E                     dE             d eps       ncg     rms          rms(c)
DAV:   1    -0.132468620250E+03   -0.17557E-05   -0.91815E-03  6156   0.406E-01    0.136E-02
DAV:   2    -0.132468638179E+03   -0.17929E-04   -0.22919E-04  6954   0.620E-02    0.107E-02
DAV:   3    -0.132468633988E+03    0.41911E-05   -0.12998E-05  3906   0.172E-02    0.720E-03
DAV:   4    -0.132468632548E+03    0.14403E-05   -0.33956E-06  3542   0.102E-02    0.515E-03
DAV:   5    -0.132468629476E+03    0.30712E-05   -0.17870E-06  3932   0.161E-02    0.312E-03
DAV:   6    -0.132468626664E+03    0.28121E-05   -0.31853E-06  3948   0.230E-02
 101 F= -.13246863E+03 E0= -.13246506E+03  d E =-.185162E-03
       N       E                     dE             d eps       ncg     rms          rms(c)
DAV:   1    -0.132468682888E+03   -0.53411E-04   -0.10220E-02  6348   0.424E-01    0.125E-02
DAV:   2    -0.132468701187E+03   -0.18299E-04   -0.21713E-04  6830   0.588E-02    0.829E-03
DAV:   3    -0.132468698996E+03    0.21905E-05   -0.31966E-06  3524   0.106E-02    0.593E-03
DAV:   4    -0.132468696782E+03    0.22145E-05   -0.50430E-06  3810   0.141E-02    0.285E-03
DAV:   5    -0.132468695678E+03    0.11034E-05   -0.42774E-06  3540   0.117E-02    0.243E-03
DAV:   6    -0.132468695430E+03    0.24792E-06   -0.13983E-06  3332   0.606E-03
 102 F= -.13246870E+03 E0= -.13246513E+03  d E =-.687662E-04
       N       E                     dE             d eps       ncg     rms          rms(c)
DAV:   1    -0.132468646792E+03    0.48887E-04   -0.76482E-02  6340   0.116E+00    0.346E-02
DAV:   2    -0.132468784636E+03   -0.13784E-03   -0.16378E-03  6896   0.163E-01    0.225E-02
DAV:   3    -0.132468767901E+03    0.16735E-04   -0.27201E-05  5542   0.312E-02    0.162E-02
DAV:   4    -0.132468752424E+03    0.15477E-04   -0.25835E-05  5044   0.361E-02    0.919E-03
DAV:   5    -0.132468739701E+03    0.12724E-04   -0.25199E-05  4968   0.345E-02    0.686E-03
DAV:   6    -0.132468736874E+03    0.28266E-05   -0.12041E-05  3596   0.191E-02
 103 F= -.13246874E+03 E0= -.13246515E+03  d E =-.110210E-03
       N       E                     dE             d eps       ncg     rms          rms(c)
DAV:   1    -0.132468751792E+03   -0.12092E-04   -0.18693E-02  6168   0.585E-01    0.187E-02
DAV:   2    -0.132468782630E+03   -0.30837E-04   -0.42462E-04  6698   0.814E-02    0.113E-02
DAV:   3    -0.132468774163E+03    0.84668E-05   -0.10480E-05  3932   0.201E-02    0.812E-03
DAV:   4    -0.132468772208E+03    0.19552E-05   -0.43977E-06  3584   0.932E-03    0.665E-03
DAV:   5    -0.132468762325E+03    0.98828E-05   -0.23183E-06  3726   0.186E-02    0.529E-03
DAV:   6    -0.132468745739E+03    0.16586E-04   -0.69090E-06  4382   0.387E-02    0.602E-03
DAV:   7    -0.132468729128E+03    0.16611E-04   -0.16647E-05  5038   0.554E-02    0.364E-03
DAV:   8    -0.132468707452E+03    0.21676E-04   -0.25425E-05  5904   0.939E-02    0.591E-03
DAV:   9    -0.132468700902E+03    0.65494E-05   -0.46910E-05  6248   0.569E-02
 104 F= -.13246870E+03 E0= -.13246511E+03  d E =0.359715E-04
       N       E                     dE             d eps       ncg     rms          rms(c)
DAV:   1    -0.132468701907E+03    0.55449E-05   -0.40765E-04  6430   0.866E-02    0.451E-03
DAV:   2    -0.132468702123E+03   -0.21652E-06   -0.11902E-05  3756   0.142E-02    0.284E-03
DAV:   3    -0.132468701761E+03    0.36245E-06   -0.11952E-06  3512   0.516E-03    0.203E-03
DAV:   4    -0.132468701554E+03    0.20691E-06   -0.25372E-07  3404   0.254E-03    0.161E-03
DAV:   5    -0.132468701040E+03    0.51364E-06   -0.17172E-07  3560   0.692E-03    0.939E-04
DAV:   6    -0.132468700346E+03    0.69474E-06   -0.56117E-07  3632   0.964E-03
 105 F= -.13246870E+03 E0= -.13246512E+03  d E =0.365283E-04
       N       E                     dE             d eps       ncg     rms          rms(c)
DAV:   1    -0.132468743907E+03   -0.42867E-04   -0.13147E-03  6184   0.157E-01    0.535E-03
DAV:   2    -0.132468746369E+03   -0.24614E-05   -0.33577E-05  5898   0.241E-02    0.334E-03
DAV:   3    -0.132468746131E+03    0.23732E-06   -0.14851E-06  3254   0.534E-03    0.263E-03
DAV:   4    -0.132468746031E+03    0.10025E-06   -0.31879E-07  3200   0.246E-03    0.206E-03
DAV:   5    -0.132468745768E+03    0.26342E-06   -0.54707E-07  3308   0.466E-03    0.930E-04
DAV:   6    -0.132468745679E+03    0.88404E-07   -0.32766E-07  3206   0.368E-03
 106 F= -.13246875E+03 E0= -.13246516E+03  d E =-.453335E-04
       N       E                     dE             d eps       ncg     rms          rms(c)
DAV:   1    -0.132468828079E+03   -0.82312E-04   -0.11788E-02  6076   0.470E-01    0.167E-02
DAV:   2    -0.132468849357E+03   -0.21278E-04   -0.30230E-04  6918   0.743E-02    0.968E-03
DAV:   3    -0.132468847416E+03    0.19419E-05   -0.13123E-05  3878   0.181E-02    0.780E-03
DAV:   4    -0.132468845957E+03    0.14582E-05   -0.34570E-06  3572   0.926E-03    0.504E-03
DAV:   5    -0.132468843706E+03    0.22510E-05   -0.61286E-06  3926   0.146E-02    0.281E-03
DAV:   6    -0.132468842944E+03    0.76218E-06   -0.26804E-06  3572   0.103E-02
 107 F= -.13246884E+03 E0= -.13246526E+03  d E =-.142598E-03
       N       E                     dE             d eps       ncg     rms          rms(c)
DAV:   1    -0.132468796988E+03    0.46718E-04   -0.47178E-02  6076   0.940E-01    0.338E-02
DAV:   2    -0.132468882312E+03   -0.85323E-04   -0.12382E-03  6846   0.151E-01    0.199E-02
DAV:   3    -0.132468873390E+03    0.89220E-05   -0.63491E-05  6870   0.377E-02    0.168E-02
DAV:   4    -0.132468867640E+03    0.57500E-05   -0.92819E-06  3736   0.139E-02    0.119E-02
DAV:   5    -0.132468853734E+03    0.13906E-04   -0.26616E-05  5182   0.327E-02    0.669E-03
DAV:   6    -0.132468848161E+03    0.55727E-05   -0.10133E-05  3764   0.236E-02
 108 F= -.13246885E+03 E0= -.13246525E+03  d E =-.147815E-03
       N       E                     dE             d eps       ncg     rms          rms(c)
DAV:   1    -0.132468855866E+03   -0.21329E-05   -0.63276E-03  6124   0.345E-01    0.106E-02
DAV:   2    -0.132468867292E+03   -0.11426E-04   -0.15408E-04  6802   0.507E-02    0.815E-03
DAV:   3    -0.132468865657E+03    0.16350E-05   -0.55176E-06  3620   0.978E-03    0.573E-03
DAV:   4    -0.132468864967E+03    0.68989E-06   -0.14539E-06  3500   0.467E-03    0.421E-03
DAV:   5    -0.132468863644E+03    0.13233E-05   -0.15947E-06  3610   0.888E-03    0.201E-03
DAV:   6    -0.132468862772E+03    0.87169E-06   -0.94267E-07  3542   0.773E-03
 109 F= -.13246886E+03 E0= -.13246527E+03  d E =-.162427E-03
       N       E                     dE             d eps       ncg     rms          rms(c)
DAV:   1    -0.132468935114E+03   -0.71470E-04   -0.17552E-03  6160   0.183E-01    0.719E-03
DAV:   2    -0.132468936553E+03   -0.14387E-05   -0.49171E-05  6704   0.299E-02    0.565E-03
DAV:   3    -0.132468934171E+03    0.23813E-05   -0.82056E-06  3752   0.108E-02    0.367E-03
DAV:   4    -0.132468932859E+03    0.13128E-05   -0.83568E-07  3506   0.542E-03    0.280E-03
DAV:   5    -0.132468928158E+03    0.47006E-05   -0.14258E-06  3802   0.181E-02    0.192E-03
DAV:   6    -0.132468925287E+03    0.28712E-05   -0.23037E-06  3736   0.157E-02
 110 F= -.13246893E+03 E0= -.13246534E+03  d E =-.625145E-04
       N       E                     dE             d eps       ncg     rms          rms(c)
DAV:   1    -0.132469012448E+03   -0.84290E-04   -0.11929E-02  6082   0.475E-01    0.189E-02
DAV:   2    -0.132469026869E+03   -0.14421E-04   -0.31926E-04  7048   0.767E-02    0.130E-02
DAV:   3    -0.132469015127E+03    0.11742E-04   -0.41846E-05  4618   0.247E-02    0.889E-03
DAV:   4    -0.132469008902E+03    0.62248E-05   -0.44307E-06  3650   0.115E-02    0.675E-03
DAV:   5    -0.132468986881E+03    0.22021E-04   -0.84287E-06  4440   0.392E-02    0.452E-03
DAV:   6    -0.132468973980E+03    0.12902E-04   -0.94617E-06  4486   0.336E-02    0.564E-03
DAV:   7    -0.132468963284E+03    0.10695E-04   -0.11476E-05  4288   0.368E-02    0.394E-03
DAV:   8    -0.132468941021E+03    0.22264E-04   -0.16818E-05  5284   0.865E-02    0.580E-03
DAV:   9    -0.132468938244E+03    0.27770E-05   -0.44391E-05  5896   0.367E-02
 111 F= -.13246894E+03 E0= -.13246535E+03  d E =-.754714E-04
       N       E                     dE             d eps       ncg     rms          rms(c)
DAV:   1    -0.132468991602E+03   -0.50582E-04   -0.15822E-02  6428   0.538E-01    0.178E-02
DAV:   2    -0.132469024406E+03   -0.32804E-04   -0.36886E-04  6906   0.760E-02    0.106E-02
DAV:   3    -0.132469020331E+03    0.40751E-05   -0.15635E-05  4260   0.132E-02    0.673E-03
DAV:   4    -0.132469018562E+03    0.17691E-05   -0.31359E-06  3512   0.694E-03    0.452E-03
DAV:   5    -0.132469016690E+03    0.18721E-05   -0.22429E-06  3676   0.107E-02    0.172E-03
DAV:   6    -0.132469016166E+03    0.52377E-06   -0.19007E-06  3584   0.834E-03
 112 F= -.13246902E+03 E0= -.13246542E+03  d E =-.779225E-04
       N       E                     dE             d eps       ncg     rms          rms(c)
DAV:   1    -0.132468995527E+03    0.21163E-04   -0.62697E-02  6196   0.107E+00    0.334E-02
DAV:   2    -0.132469121857E+03   -0.12633E-03   -0.14250E-03  6920   0.152E-01    0.207E-02
DAV:   3    -0.132469108951E+03    0.12906E-04   -0.52015E-05  5482   0.257E-02    0.144E-02
DAV:   4    -0.132469102944E+03    0.60065E-05   -0.93947E-06  3816   0.135E-02    0.105E-02
DAV:   5    -0.132469095050E+03    0.78942E-05   -0.16664E-05  4710   0.300E-02    0.408E-03
DAV:   6    -0.132469094717E+03    0.33293E-06   -0.10633E-05  3672   0.167E-02
 113 F= -.13246909E+03 E0= -.13246549E+03  d E =-.156473E-03
       N       E                     dE             d eps       ncg     rms          rms(c)
DAV:   1    -0.132469172012E+03   -0.76962E-04   -0.24131E-02  6452   0.662E-01    0.208E-02
DAV:   2    -0.132469219274E+03   -0.47262E-04   -0.54464E-04  6746   0.914E-02    0.115E-02
DAV:   3    -0.132469213793E+03    0.54814E-05   -0.49063E-06  3836   0.153E-02    0.789E-03
DAV:   4    -0.132469209808E+03    0.39851E-05   -0.45349E-06  3642   0.154E-02    0.478E-03
DAV:   5    -0.132469204643E+03    0.51647E-05   -0.48818E-06  4012   0.238E-02    0.220E-03
DAV:   6    -0.132469202106E+03    0.25369E-05   -0.49632E-06  3594   0.173E-02
 114 F= -.13246920E+03 E0= -.13246558E+03  d E =-.107389E-03
       N       E                     dE             d eps       ncg     rms          rms(c)
DAV:   1    -0.132469151777E+03    0.52866E-04   -0.68533E-02  6468   0.112E+00    0.327E-02
DAV:   2    -0.132469281008E+03   -0.12923E-03   -0.15473E-03  6718   0.156E-01    0.209E-02
DAV:   3    -0.132469261628E+03    0.19380E-04   -0.20281E-05  4756   0.274E-02    0.147E-02
DAV:   4    -0.132469253493E+03    0.81347E-05   -0.10642E-05  3720   0.162E-02    0.111E-02
DAV:   5    -0.132469225310E+03    0.28183E-04   -0.14923E-05  4494   0.436E-02    0.555E-03
DAV:   6    -0.132469211387E+03    0.13924E-04   -0.14648E-05  4332   0.328E-02    0.502E-03
DAV:   7    -0.132469190339E+03    0.21047E-04   -0.14332E-05  4804   0.572E-02    0.695E-03
DAV:   8    -0.132469151648E+03    0.38691E-04   -0.33690E-05  6636   0.112E-01    0.927E-03
DAV:   9    -0.132469142147E+03    0.95004E-05   -0.56935E-05  6258   0.508E-02
 115 F= -.13246914E+03 E0= -.13246552E+03  d E =-.474304E-04
       N       E                     dE             d eps       ncg     rms          rms(c)
DAV:   1    -0.132469166647E+03   -0.14999E-04   -0.16203E-02  6720   0.547E-01    0.251E-02
DAV:   2    -0.132469209248E+03   -0.42601E-04   -0.59241E-04  6734   0.941E-02    0.185E-02
DAV:   3    -0.132469201841E+03    0.74066E-05   -0.10721E-05  3690   0.203E-02    0.129E-02
DAV:   4    -0.132469197145E+03    0.46960E-05   -0.26661E-05  5404   0.311E-02    0.488E-03
DAV:   5    -0.132469196704E+03    0.44120E-06   -0.10189E-05  3404   0.131E-02    0.503E-03
DAV:   6    -0.132469195835E+03    0.86851E-06   -0.12393E-06  3344   0.581E-03
 116 F= -.13246920E+03 E0= -.13246560E+03  d E =-.101118E-03
       N       E                     dE             d eps       ncg     rms          rms(c)
DAV:   1    -0.132469207524E+03   -0.10820E-04   -0.46756E-03  6504   0.292E-01    0.927E-03
DAV:   2    -0.132469215326E+03   -0.78024E-05   -0.10528E-04  6640   0.424E-02    0.538E-03
DAV:   3    -0.132469213582E+03    0.17445E-05   -0.35992E-06  3596   0.112E-02    0.384E-03
DAV:   4    -0.132469212996E+03    0.58606E-06   -0.12410E-06  3464   0.506E-03    0.328E-03
DAV:   5    -0.132469211084E+03    0.19123E-05   -0.77288E-07  3578   0.777E-03    0.238E-03
DAV:   6    -0.132469207322E+03    0.37612E-05   -0.21142E-06  3848   0.193E-02
 117 F= -.13246921E+03 E0= -.13246561E+03  d E =-.112605E-03
       N       E                     dE             d eps       ncg     rms          rms(c)
DAV:   1    -0.132469208116E+03    0.29680E-05   -0.11410E-03  6564   0.146E-01    0.492E-03
DAV:   2    -0.132469209282E+03   -0.11669E-05   -0.30438E-05  5154   0.243E-02    0.333E-03
DAV:   3    -0.132469208154E+03    0.11279E-05   -0.29030E-06  3578   0.850E-03    0.258E-03
DAV:   4    -0.132469207928E+03    0.22603E-06   -0.63359E-07  3314   0.326E-03    0.266E-03
DAV:   5    -0.132469207601E+03    0.32756E-06   -0.10702E-07  3272   0.147E-03    0.230E-03
DAV:   6    -0.132469203918E+03    0.36832E-05   -0.19530E-05  4482   0.268E-02
 118 F= -.13246920E+03 E0= -.13246560E+03  d E =-.109201E-03
       N       E                     dE             d eps       ncg     rms          rms(c)
DAV:   1    -0.132469200936E+03    0.66651E-05   -0.79453E-05  5672   0.418E-02    0.112E-02
DAV:   2    -0.132469198874E+03    0.20617E-05   -0.28608E-05  5108   0.269E-02    0.271E-03
DAV:   3    -0.132469198505E+03    0.36938E-06   -0.39093E-06  3578   0.827E-03    0.198E-03
DAV:   4    -0.132469198313E+03    0.19153E-06   -0.30686E-07  3350   0.226E-03    0.156E-03
DAV:   5    -0.132469197206E+03    0.11074E-05   -0.30174E-07  3578   0.712E-03    0.106E-03
DAV:   6    -0.132469194421E+03    0.27844E-05   -0.11762E-06  3948   0.237E-02
 119 F= -.13246919E+03 E0= -.13246559E+03  d E =-.997043E-04
