       N       E                     dE             d eps       ncg     rms          rms(c)
DAV:   1     0.535128328420E+03    0.53513E+03   -0.43955E+04  6296   0.134E+03
DAV:   2    -0.913188989325E+02   -0.62645E+03   -0.59449E+03  8064   0.264E+02
DAV:   3    -0.154726607323E+03   -0.63408E+02   -0.63014E+02  7392   0.903E+01
DAV:   4    -0.155838279377E+03   -0.11117E+01   -0.11091E+01  7440   0.130E+01
DAV:   5    -0.155861878297E+03   -0.23599E-01   -0.23590E-01  7536   0.186E+00    0.231E+01
DAV:   6    -0.139846213792E+03    0.16016E+02   -0.87060E+01  7280   0.314E+01    0.779E+00
DAV:   7    -0.139735143095E+03    0.11107E+00   -0.23460E+00  7032   0.574E+00    0.478E+00
DAV:   8    -0.139667251974E+03    0.67891E-01   -0.92787E-01  7328   0.478E+00    0.136E+00
DAV:   9    -0.139622324263E+03    0.44928E-01   -0.17148E-01  7208   0.169E+00    0.811E-01
DAV:  10    -0.139618851073E+03    0.34732E-02   -0.91146E-02  7280   0.116E+00    0.338E-01
DAV:  11    -0.139619627130E+03   -0.77606E-03   -0.16917E-02  7096   0.462E-01    0.264E-01
DAV:  12    -0.139618987532E+03    0.63960E-03   -0.52177E-03  8096   0.391E-01    0.104E-01
DAV:  13    -0.139619186831E+03   -0.19930E-03   -0.20313E-03  7200   0.172E-01    0.427E-02
DAV:  14    -0.139619179308E+03    0.75227E-05   -0.25631E-04  7568   0.794E-02    0.145E-02
DAV:  15    -0.139619188124E+03   -0.88157E-05   -0.84126E-05  6952   0.365E-02
   1 F= -.13961919E+03 E0= -.13961613E+03  d E =-.139619E+03
       N       E                     dE             d eps       ncg     rms          rms(c)
DAV:   1    -0.139621468653E+03   -0.22893E-02   -0.33039E-02  6656   0.762E-01    0.596E-02
DAV:   2    -0.139621486740E+03   -0.18087E-04   -0.23313E-03  7400   0.202E-01    0.547E-02
DAV:   3    -0.139621350163E+03    0.13658E-03   -0.35845E-04  7216   0.707E-02    0.358E-02
DAV:   4    -0.139621329780E+03    0.20383E-04   -0.43617E-05  6928   0.270E-02    0.274E-02
DAV:   5    -0.139621273825E+03    0.55955E-04   -0.64778E-05  7184   0.453E-02    0.138E-02
DAV:   6    -0.139621247278E+03    0.26548E-04   -0.53408E-05  7416   0.537E-02    0.802E-03
DAV:   7    -0.139621241029E+03    0.62489E-05   -0.46303E-05  6736   0.423E-02
   2 F= -.13962124E+03 E0= -.13961827E+03  d E =-.205290E-02
       N       E                     dE             d eps       ncg     rms          rms(c)
DAV:   1    -0.139622061432E+03   -0.81415E-03   -0.30013E-02  6456   0.722E-01    0.539E-02
DAV:   2    -0.139622057948E+03    0.34838E-05   -0.19780E-03  7400   0.178E-01    0.503E-02
DAV:   3    -0.139621925373E+03    0.13258E-03   -0.30035E-04  7248   0.643E-02    0.319E-02
DAV:   4    -0.139621905331E+03    0.20042E-04   -0.40100E-05  6920   0.257E-02    0.244E-02
DAV:   5    -0.139621846138E+03    0.59192E-04   -0.47348E-05  6720   0.390E-02    0.139E-02
DAV:   6    -0.139621804573E+03    0.41566E-04   -0.64513E-05  7344   0.552E-02    0.816E-03
DAV:   7    -0.139621790337E+03    0.14236E-04   -0.44566E-05  6856   0.399E-02    0.682E-03
DAV:   8    -0.139621781703E+03    0.86340E-05   -0.13866E-05  4416   0.272E-02
   3 F= -.13962178E+03 E0= -.13961887E+03  d E =-.259358E-02
       N       E                     dE             d eps       ncg     rms          rms(c)
DAV:   1    -0.139623038842E+03   -0.12485E-02   -0.12497E-01  6288   0.147E+00    0.542E-02
DAV:   2    -0.139623325535E+03   -0.28669E-03   -0.34971E-03  7208   0.211E-01    0.320E-02
DAV:   3    -0.139623291083E+03    0.34452E-04   -0.62997E-05  6640   0.404E-02    0.212E-02
DAV:   4    -0.139623279974E+03    0.11109E-04   -0.21724E-05  4944   0.259E-02    0.154E-02
DAV:   5    -0.139623260537E+03    0.19437E-04   -0.11231E-05  4936   0.418E-02    0.669E-03
DAV:   6    -0.139623247780E+03    0.12758E-04   -0.18892E-05  5312   0.428E-02    0.412E-03
DAV:   7    -0.139623240895E+03    0.68844E-05   -0.13306E-05  4448   0.311E-02
   4 F= -.13962324E+03 E0= -.13962037E+03  d E =-.145919E-02
       N       E                     dE             d eps       ncg     rms          rms(c)
DAV:   1    -0.139624007783E+03   -0.76000E-03   -0.11233E+00  6272   0.443E+00    0.163E-01
DAV:   2    -0.139626643795E+03   -0.26360E-02   -0.31473E-02  7216   0.639E-01    0.101E-01
DAV:   3    -0.139626353769E+03    0.29003E-03   -0.56713E-04  7336   0.118E-01    0.663E-02
DAV:   4    -0.139626274130E+03    0.79639E-04   -0.21161E-04  7304   0.714E-02    0.464E-02
DAV:   5    -0.139626163281E+03    0.11085E-03   -0.83160E-05  7352   0.864E-02    0.207E-02
DAV:   6    -0.139626099476E+03    0.63806E-04   -0.10489E-04  7768   0.102E-01    0.946E-03
DAV:   7    -0.139626076767E+03    0.22709E-04   -0.84314E-05  6832   0.641E-02    0.937E-03
DAV:   8    -0.139626044107E+03    0.32661E-04   -0.87099E-06  4496   0.546E-02    0.661E-03
DAV:   9    -0.139625993462E+03    0.50645E-04   -0.31030E-05  6224   0.919E-02    0.606E-03
DAV:  10    -0.139625954653E+03    0.38809E-04   -0.38852E-05  6664   0.969E-02    0.637E-03
DAV:  11    -0.139625914018E+03    0.40635E-04   -0.67299E-05  7760   0.150E-01    0.544E-03
DAV:  12    -0.139625905401E+03    0.86173E-05   -0.10419E-04  7528   0.110E-01    0.526E-03
DAV:  13    -0.139625908258E+03   -0.28571E-05   -0.80903E-05  6632   0.381E-02
   5 F= -.13962591E+03 E0= -.13962314E+03  d E =-.412656E-02
       N       E                     dE             d eps       ncg     rms          rms(c)
DAV:   1    -0.139627432896E+03   -0.15275E-02   -0.24609E-01  6464   0.214E+00    0.750E-02
DAV:   2    -0.139628006226E+03   -0.57333E-03   -0.66458E-03  7104   0.314E-01    0.401E-02
DAV:   3    -0.139627966921E+03    0.39306E-04   -0.90021E-05  7440   0.482E-02    0.284E-02
DAV:   4    -0.139627928698E+03    0.38223E-04   -0.64204E-05  7216   0.494E-02    0.110E-02
DAV:   5    -0.139627914733E+03    0.13965E-04   -0.28883E-05  5960   0.399E-02    0.864E-03
DAV:   6    -0.139627900104E+03    0.14629E-04   -0.21295E-05  5552   0.459E-02    0.506E-03
DAV:   7    -0.139627886153E+03    0.13951E-04   -0.10190E-05  4480   0.463E-02    0.613E-03
DAV:   8    -0.139627873139E+03    0.13015E-04   -0.10256E-05  4536   0.425E-02    0.463E-03
DAV:   9    -0.139627858141E+03    0.14997E-04   -0.94259E-06  4712   0.523E-02    0.430E-03
DAV:  10    -0.139627840308E+03    0.17833E-04   -0.18338E-05  5392   0.777E-02    0.422E-03
DAV:  11    -0.139627832965E+03    0.73431E-05   -0.34028E-05  6384   0.780E-02
   6 F= -.13962783E+03 E0= -.13962505E+03  d E =-.192471E-02
       N       E                     dE             d eps       ncg     rms          rms(c)
DAV:   1    -0.139626665945E+03    0.11744E-02   -0.17823E+00  6480   0.578E+00    0.194E-01
DAV:   2    -0.139630865051E+03   -0.41991E-02   -0.48338E-02  7104   0.840E-01    0.111E-01
DAV:   3    -0.139630574149E+03    0.29090E-03   -0.53900E-04  7448   0.115E-01    0.777E-02
DAV:   4    -0.139630279077E+03    0.29507E-03   -0.52819E-04  7432   0.141E-01    0.279E-02
DAV:   5    -0.139630201856E+03    0.77221E-04   -0.24097E-04  7416   0.949E-02    0.228E-02
DAV:   6    -0.139630112396E+03    0.89460E-04   -0.13429E-04  7808   0.994E-02    0.137E-02
DAV:   7    -0.139630048195E+03    0.64201E-04   -0.86504E-05  7720   0.762E-02    0.201E-02
DAV:   8    -0.139629952219E+03    0.95976E-04   -0.45991E-05  7072   0.876E-02    0.930E-03
DAV:   9    -0.139629794450E+03    0.15777E-03   -0.14297E-04  9448   0.166E-01    0.209E-02
DAV:  10    -0.139629641177E+03    0.15327E-03   -0.13922E-04  8672   0.220E-01    0.161E-02
DAV:  11    -0.139629580378E+03    0.60798E-04   -0.27736E-04  9352   0.198E-01    0.156E-02
DAV:  12    -0.139629585758E+03   -0.53794E-05   -0.24986E-04  7752   0.135E-01    0.240E-02
DAV:  13    -0.139629588488E+03   -0.27297E-05   -0.15449E-04  6800   0.501E-02    0.185E-02
DAV:  14    -0.139629585036E+03    0.34517E-05   -0.14049E-05  4576   0.187E-02
   7 F= -.13962959E+03 E0= -.13962663E+03  d E =-.367678E-02
       N       E                     dE             d eps       ncg     rms          rms(c)
DAV:   1    -0.139629573181E+03    0.15306E-04   -0.36317E-02  6544   0.821E-01    0.307E-02
DAV:   2    -0.139629661452E+03   -0.88271E-04   -0.10460E-03  7120   0.124E-01    0.160E-02
DAV:   3    -0.139629655163E+03    0.62896E-05   -0.12517E-05  4688   0.183E-02    0.113E-02
DAV:   4    -0.139629649818E+03    0.53448E-05   -0.14546E-05  4488   0.221E-02    0.447E-03
DAV:   5    -0.139629648245E+03    0.15728E-05   -0.73480E-06  4144   0.133E-02    0.474E-03
DAV:   6    -0.139629647457E+03    0.78750E-06   -0.16358E-06  3880   0.856E-03
   8 F= -.13962965E+03 E0= -.13962671E+03  d E =-.373920E-02
       N       E                     dE             d eps       ncg     rms          rms(c)
DAV:   1    -0.139630521800E+03   -0.87356E-03   -0.20421E-01  6288   0.195E+00    0.636E-02
DAV:   2    -0.139630929821E+03   -0.40802E-03   -0.49349E-03  7040   0.267E-01    0.338E-02
DAV:   3    -0.139630906892E+03    0.22929E-04   -0.54246E-05  6848   0.343E-02    0.229E-02
DAV:   4    -0.139630899630E+03    0.72618E-05   -0.26161E-05  5232   0.264E-02    0.139E-02
DAV:   5    -0.139630891148E+03    0.84817E-05   -0.22771E-05  5064   0.296E-02    0.523E-03
DAV:   6    -0.139630890542E+03    0.60557E-06   -0.85249E-06  4096   0.148E-02
   9 F= -.13963089E+03 E0= -.13962791E+03  d E =-.124309E-02
       N       E                     dE             d eps       ncg     rms          rms(c)
DAV:   1    -0.139630075602E+03    0.81555E-03   -0.18379E+00  6272   0.584E+00    0.192E-01
DAV:   2    -0.139633746150E+03   -0.36705E-02   -0.44833E-02  7024   0.804E-01    0.105E-01
DAV:   3    -0.139633523197E+03    0.22295E-03   -0.53725E-04  7480   0.101E-01    0.708E-02
DAV:   4    -0.139633457804E+03    0.65393E-04   -0.21042E-04  7248   0.655E-02    0.463E-02
DAV:   5    -0.139633387747E+03    0.70057E-04   -0.17501E-04  7264   0.770E-02    0.135E-02
DAV:   6    -0.139633388077E+03   -0.32991E-06   -0.68785E-05  6984   0.388E-02
  10 F= -.13963339E+03 E0= -.13963037E+03  d E =-.374062E-02
       N       E                     dE             d eps       ncg     rms          rms(c)
DAV:   1    -0.139619198469E+03    0.14189E-01   -0.73513E+00  6272   0.117E+01    0.390E-01
DAV:   2    -0.139634154801E+03   -0.14956E-01   -0.18138E-01  7032   0.161E+00    0.215E-01
DAV:   3    -0.139633094112E+03    0.10607E-02   -0.22186E-03  7512   0.208E-01    0.143E-01
DAV:   4    -0.139632748526E+03    0.34559E-03   -0.89076E-04  7240   0.146E-01    0.825E-02
DAV:   5    -0.139632562087E+03    0.18644E-03   -0.60725E-04  7224   0.139E-01    0.269E-02
DAV:   6    -0.139632559254E+03    0.28331E-05   -0.22326E-04  7336   0.744E-02    0.198E-02
DAV:   7    -0.139632545682E+03    0.13572E-04   -0.23829E-05  5504   0.304E-02    0.138E-02
DAV:   8    -0.139632524678E+03    0.21004E-04   -0.77066E-06  4520   0.357E-02    0.714E-03
DAV:   9    -0.139632500276E+03    0.24402E-04   -0.11053E-05  4816   0.498E-02    0.570E-03
DAV:  10    -0.139632470157E+03    0.30119E-04   -0.16604E-05  5480   0.743E-02    0.583E-03
DAV:  11    -0.139632432526E+03    0.37632E-04   -0.45380E-05  7304   0.123E-01    0.690E-03
DAV:  12    -0.139632419702E+03    0.12824E-04   -0.76275E-05  7800   0.107E-01    0.686E-03
DAV:  13    -0.139632424392E+03   -0.46903E-05   -0.79276E-05  6480   0.503E-02
  11 F= -.13963242E+03 E0= -.13962983E+03  d E =-.277693E-02
       N       E                     dE             d eps       ncg     rms          rms(c)
DAV:   1    -0.139628698714E+03    0.37210E-02   -0.29441E+00  6272   0.744E+00    0.240E-01
DAV:   2    -0.139634765694E+03   -0.60670E-02   -0.71557E-02  7048   0.103E+00    0.136E-01
DAV:   3    -0.139634245458E+03    0.52024E-03   -0.10803E-03  7400   0.128E-01    0.939E-02
DAV:   4    -0.139634094492E+03    0.15097E-03   -0.28255E-04  7296   0.771E-02    0.639E-02
DAV:   5    -0.139633990241E+03    0.10425E-03   -0.29760E-04  7248   0.989E-02    0.167E-02
DAV:   6    -0.139633998233E+03   -0.79923E-05   -0.13377E-04  7208   0.510E-02    0.130E-02
DAV:   7    -0.139633995420E+03    0.28128E-05   -0.13219E-05  4240   0.170E-02
  12 F= -.13963400E+03 E0= -.13963111E+03  d E =-.434796E-02
       N       E                     dE             d eps       ncg     rms          rms(c)
DAV:   1    -0.139636412260E+03   -0.24140E-02   -0.44597E-01  6272   0.293E+00    0.105E-01
DAV:   2    -0.139637227586E+03   -0.81533E-03   -0.11381E-02  7360   0.439E-01    0.735E-02
DAV:   3    -0.139637126443E+03    0.10114E-03   -0.26881E-04  7296   0.788E-02    0.526E-02
DAV:   4    -0.139637091863E+03    0.34580E-04   -0.11045E-04  7312   0.447E-02    0.327E-02
DAV:   5    -0.139637061037E+03    0.30826E-04   -0.12816E-04  7328   0.532E-02    0.137E-02
DAV:   6    -0.139637056114E+03    0.49236E-05   -0.21032E-05  5296   0.283E-02
  13 F= -.13963706E+03 E0= -.13963423E+03  d E =-.306069E-02
       N       E                     dE             d eps       ncg     rms          rms(c)
DAV:   1    -0.139637336699E+03   -0.27566E-03   -0.70535E-01  6272   0.369E+00    0.136E-01
DAV:   2    -0.139638643619E+03   -0.13069E-02   -0.18333E-02  7376   0.554E-01    0.934E-02
DAV:   3    -0.139638459689E+03    0.18393E-03   -0.40400E-04  7320   0.104E-01    0.643E-02
DAV:   4    -0.139638394158E+03    0.65531E-04   -0.20457E-04  7408   0.621E-02    0.384E-02
DAV:   5    -0.139638317699E+03    0.76459E-04   -0.13936E-04  7352   0.724E-02    0.157E-02
DAV:   6    -0.139638288820E+03    0.28880E-04   -0.42161E-05  6736   0.538E-02    0.102E-02
DAV:   7    -0.139638263051E+03    0.25768E-04   -0.21545E-05  5304   0.486E-02    0.790E-03
DAV:   8    -0.139638234778E+03    0.28273E-04   -0.67528E-06  4616   0.456E-02    0.577E-03
DAV:   9    -0.139638174023E+03    0.60756E-04   -0.41384E-05  6976   0.115E-01    0.561E-03
DAV:  10    -0.139638132663E+03    0.41359E-04   -0.92011E-05  8480   0.139E-01    0.863E-03
DAV:  11    -0.139638124699E+03    0.79642E-05   -0.98861E-05  8008   0.107E-01
  14 F= -.13963812E+03 E0= -.13963540E+03  d E =-.412928E-02
       N       E                     dE             d eps       ncg     rms          rms(c)
DAV:   1    -0.139637876702E+03    0.25596E-03   -0.15139E+00  6320   0.537E+00    0.159E-01
DAV:   2    -0.139640726978E+03   -0.28503E-02   -0.32344E-02  7256   0.723E-01    0.896E-02
DAV:   3    -0.139640539194E+03    0.18778E-03   -0.32794E-04  7520   0.949E-02    0.587E-02
DAV:   4    -0.139640395426E+03    0.14377E-03   -0.38445E-04  7416   0.121E-01    0.160E-02
DAV:   5    -0.139640404092E+03   -0.86666E-05   -0.20160E-04  7360   0.644E-02    0.168E-02
DAV:   6    -0.139640397945E+03    0.61472E-05   -0.22034E-05  4792   0.270E-02
  15 F= -.13964040E+03 E0= -.13963779E+03  d E =-.227325E-02
       N       E                     dE             d eps       ncg     rms          rms(c)
DAV:   1    -0.139635002790E+03    0.54013E-02   -0.37365E+00  6288   0.844E+00    0.252E-01
DAV:   2    -0.139642137392E+03   -0.71346E-02   -0.80471E-02  7256   0.114E+00    0.141E-01
DAV:   3    -0.139641654673E+03    0.48272E-03   -0.78253E-04  7512   0.153E-01    0.923E-02
DAV:   4    -0.139641266236E+03    0.38844E-03   -0.90759E-04  7472   0.207E-01    0.267E-02
DAV:   5    -0.139641270783E+03   -0.45468E-05   -0.57998E-04  7392   0.111E-01    0.288E-02
DAV:   6    -0.139641248085E+03    0.22698E-04   -0.62045E-05  6832   0.434E-02    0.174E-02
DAV:   7    -0.139641217395E+03    0.30690E-04   -0.16358E-05  4632   0.374E-02    0.911E-03
DAV:   8    -0.139641177957E+03    0.39439E-04   -0.16240E-05  5288   0.651E-02    0.785E-03
DAV:   9    -0.139641134066E+03    0.43890E-04   -0.35281E-05  6720   0.958E-02    0.123E-02
DAV:  10    -0.139641093359E+03    0.40707E-04   -0.54621E-05  7280   0.113E-01    0.106E-02
DAV:  11    -0.139641060016E+03    0.33343E-04   -0.74257E-05  7000   0.113E-01    0.883E-03
DAV:  12    -0.139641052371E+03    0.76450E-05   -0.69558E-05  7200   0.846E-02
  16 F= -.13964105E+03 E0= -.13963859E+03  d E =-.292767E-02
       N       E                     dE             d eps       ncg     rms          rms(c)
DAV:   1    -0.139640747369E+03    0.31265E-03   -0.28466E-01  6344   0.232E+00    0.697E-02
DAV:   2    -0.139641279443E+03   -0.53207E-03   -0.60544E-03  7264   0.311E-01    0.375E-02
DAV:   3    -0.139641244812E+03    0.34631E-04   -0.63204E-05  7512   0.416E-02    0.245E-02
DAV:   4    -0.139641219103E+03    0.25709E-04   -0.59289E-05  7224   0.472E-02    0.765E-03
DAV:   5    -0.139641218759E+03    0.34378E-06   -0.33579E-05  6432   0.279E-02    0.694E-03
DAV:   6    -0.139641217704E+03    0.10548E-05   -0.48591E-06  4152   0.129E-02
  17 F= -.13964122E+03 E0= -.13963872E+03  d E =-.309301E-02
       N       E                     dE             d eps       ncg     rms          rms(c)
DAV:   1    -0.139641063356E+03    0.15540E-03   -0.12505E+00  6272   0.487E+00    0.157E-01
DAV:   2    -0.139643903642E+03   -0.28403E-02   -0.31036E-02  7064   0.675E-01    0.839E-02
DAV:   3    -0.139643774041E+03    0.12960E-03   -0.36264E-04  7552   0.896E-02    0.578E-02
DAV:   4    -0.139643692230E+03    0.81811E-04   -0.21210E-04  7304   0.723E-02    0.229E-02
DAV:   5    -0.139643678211E+03    0.14019E-04   -0.81240E-05  7336   0.520E-02    0.135E-02
DAV:   6    -0.139643676719E+03    0.14925E-05   -0.40335E-05  6296   0.346E-02
  18 F= -.13964368E+03 E0= -.13964122E+03  d E =-.245901E-02
       N       E                     dE             d eps       ncg     rms          rms(c)
DAV:   1    -0.139632489013E+03    0.11189E-01   -0.61531E+00  6272   0.108E+01    0.352E-01
DAV:   2    -0.139646622971E+03   -0.14134E-01   -0.15423E-01  7048   0.151E+00    0.187E-01
DAV:   3    -0.139645972229E+03    0.65074E-03   -0.17842E-03  7544   0.202E-01    0.127E-01
DAV:   4    -0.139645581487E+03    0.39074E-03   -0.97549E-04  7336   0.158E-01    0.494E-02
DAV:   5    -0.139645521595E+03    0.59892E-04   -0.38967E-04  7432   0.112E-01    0.279E-02
DAV:   6    -0.139645515936E+03    0.56589E-05   -0.16666E-04  7440   0.704E-02    0.207E-02
DAV:   7    -0.139645501484E+03    0.14452E-04   -0.25226E-05  5912   0.398E-02    0.130E-02
DAV:   8    -0.139645488911E+03    0.12573E-04   -0.68704E-06  4520   0.345E-02    0.808E-03
DAV:   9    -0.139645470319E+03    0.18592E-04   -0.17986E-05  5648   0.612E-02    0.492E-03
DAV:  10    -0.139645467223E+03    0.30966E-05   -0.21156E-05  5304   0.245E-02
  19 F= -.13964547E+03 E0= -.13964289E+03  d E =-.424952E-02
       N       E                     dE             d eps       ncg     rms          rms(c)
DAV:   1    -0.139644248805E+03    0.12215E-02   -0.19396E+00  6304   0.616E+00    0.183E-01
DAV:   2    -0.139648242021E+03   -0.39932E-02   -0.43131E-02  7144   0.834E-01    0.988E-02
DAV:   3    -0.139648044626E+03    0.19739E-03   -0.40832E-04  7584   0.934E-02    0.653E-02
DAV:   4    -0.139647943830E+03    0.10080E-03   -0.31987E-04  7288   0.872E-02    0.241E-02
DAV:   5    -0.139647932317E+03    0.11513E-04   -0.12903E-04  7224   0.463E-02    0.158E-02
DAV:   6    -0.139647930767E+03    0.15504E-05   -0.12954E-05  4296   0.208E-02
  20 F= -.13964793E+03 E0= -.13964534E+03  d E =-.246354E-02
       N       E                     dE             d eps       ncg     rms          rms(c)
DAV:   1    -0.139633264458E+03    0.14668E-01   -0.87678E+00  6312   0.131E+01    0.396E-01
DAV:   2    -0.139651583690E+03   -0.18319E-01   -0.19782E-01  7168   0.178E+00    0.214E-01
DAV:   3    -0.139650649636E+03    0.93405E-03   -0.18639E-03  7472   0.201E-01    0.139E-01
DAV:   4    -0.139650199637E+03    0.45000E-03   -0.14809E-03  7304   0.187E-01    0.518E-02
DAV:   5    -0.139650152134E+03    0.47503E-04   -0.55727E-04  7248   0.989E-02    0.305E-02
DAV:   6    -0.139650153079E+03   -0.94493E-06   -0.46761E-05  6920   0.306E-02
  21 F= -.13965015E+03 E0= -.13964751E+03  d E =-.468586E-02
       N       E                     dE             d eps       ncg     rms          rms(c)
DAV:   1    -0.139649957217E+03    0.19492E-03   -0.12799E+00  6360   0.489E+00    0.146E-01
DAV:   2    -0.139652323459E+03   -0.23662E-02   -0.26741E-02  7344   0.666E-01    0.820E-02
DAV:   3    -0.139652146807E+03    0.17665E-03   -0.28978E-04  7528   0.917E-02    0.553E-02
DAV:   4    -0.139652017236E+03    0.12957E-03   -0.32994E-04  7400   0.108E-01    0.204E-02
DAV:   5    -0.139652003644E+03    0.13592E-04   -0.16679E-04  7432   0.698E-02    0.176E-02
DAV:   6    -0.139651999935E+03    0.37096E-05   -0.44757E-05  6672   0.293E-02
  22 F= -.13965200E+03 E0= -.13964941E+03  d E =-.184686E-02
       N       E                     dE             d eps       ncg     rms          rms(c)
DAV:   1    -0.139650417077E+03    0.15866E-02   -0.10043E+00  6400   0.433E+00    0.128E-01
DAV:   2    -0.139652247729E+03   -0.18307E-02   -0.20893E-02  7344   0.592E-01    0.738E-02
DAV:   3    -0.139652091272E+03    0.15646E-03   -0.24456E-04  7520   0.901E-02    0.506E-02
DAV:   4    -0.139651960305E+03    0.13097E-03   -0.21339E-04  7472   0.100E-01    0.213E-02
DAV:   5    -0.139651918462E+03    0.41843E-04   -0.15055E-04  7448   0.854E-02    0.150E-02
DAV:   6    -0.139651913184E+03    0.52777E-05   -0.79736E-05  6784   0.397E-02
  23 F= -.13965191E+03 E0= -.13964933E+03  d E =-.176011E-02
       N       E                     dE             d eps       ncg     rms          rms(c)
DAV:   1    -0.139651781376E+03    0.13709E-03   -0.19671E-01  6472   0.191E+00    0.538E-02
DAV:   2    -0.139652134221E+03   -0.35285E-03   -0.40691E-03  7312   0.259E-01    0.321E-02
DAV:   3    -0.139652105618E+03    0.28603E-04   -0.47990E-05  7240   0.326E-02    0.217E-02
DAV:   4    -0.139652077377E+03    0.28241E-04   -0.60371E-05  7200   0.433E-02    0.768E-03
DAV:   5    -0.139652074296E+03    0.30813E-05   -0.22858E-05  5368   0.241E-02    0.877E-03
DAV:   6    -0.139652069631E+03    0.46652E-05   -0.78421E-06  4224   0.196E-02
  24 F= -.13965207E+03 E0= -.13964948E+03  d E =-.191655E-02
       N       E                     dE             d eps       ncg     rms          rms(c)
DAV:   1    -0.139651527929E+03    0.54637E-03   -0.89170E-01  6360   0.414E+00    0.124E-01
DAV:   2    -0.139653285413E+03   -0.17575E-02   -0.19785E-02  7192   0.561E-01    0.692E-02
DAV:   3    -0.139653171662E+03    0.11375E-03   -0.26152E-04  7520   0.772E-02    0.481E-02
DAV:   4    -0.139653103271E+03    0.68391E-04   -0.14416E-04  7424   0.604E-02    0.223E-02
DAV:   5    -0.139653077620E+03    0.25651E-04   -0.75780E-05  7304   0.503E-02    0.107E-02
DAV:   6    -0.139653076220E+03    0.13995E-05   -0.31458E-05  6176   0.237E-02
  25 F= -.13965308E+03 E0= -.13965042E+03  d E =-.100659E-02
       N       E                     dE             d eps       ncg     rms          rms(c)
DAV:   1    -0.139652755479E+03    0.32214E-03   -0.25145E-01  6344   0.220E+00    0.666E-02
DAV:   2    -0.139653255611E+03   -0.50013E-03   -0.56508E-03  7224   0.301E-01    0.370E-02
DAV:   3    -0.139653221091E+03    0.34520E-04   -0.76673E-05  7552   0.437E-02    0.258E-02
DAV:   4    -0.139653200430E+03    0.20661E-04   -0.39312E-05  6800   0.310E-02    0.130E-02
DAV:   5    -0.139653188448E+03    0.11982E-04   -0.21972E-05  5728   0.317E-02    0.564E-03
DAV:   6    -0.139653187538E+03    0.91028E-06   -0.14069E-05  4480   0.171E-02
  26 F= -.13965319E+03 E0= -.13965049E+03  d E =-.111791E-02
       N       E                     dE             d eps       ncg     rms          rms(c)
DAV:   1    -0.139653444608E+03   -0.25616E-03   -0.32595E-01  6616   0.250E+00    0.726E-02
DAV:   2    -0.139654031744E+03   -0.58714E-03   -0.70213E-03  7264   0.347E-01    0.444E-02
DAV:   3    -0.139653987612E+03    0.44132E-04   -0.10826E-04  7480   0.487E-02    0.323E-02
DAV:   4    -0.139653954523E+03    0.33088E-04   -0.12365E-04  7168   0.522E-02    0.135E-02
DAV:   5    -0.139653951369E+03    0.31547E-05   -0.29264E-05  6432   0.300E-02    0.110E-02
DAV:   6    -0.139653949608E+03    0.17605E-05   -0.15041E-05  4160   0.206E-02
  27 F= -.13965395E+03 E0= -.13965122E+03  d E =-.762070E-03
       N       E                     dE             d eps       ncg     rms          rms(c)
DAV:   1    -0.139653906319E+03    0.45049E-04   -0.83310E-02  6632   0.126E+00    0.373E-02
DAV:   2    -0.139654059560E+03   -0.15324E-03   -0.18443E-03  7264   0.179E-01    0.232E-02
DAV:   3    -0.139654046775E+03    0.12785E-04   -0.31439E-05  6240   0.275E-02    0.167E-02
DAV:   4    -0.139654036222E+03    0.10553E-04   -0.26982E-05  5984   0.253E-02    0.732E-03
DAV:   5    -0.139654032651E+03    0.35712E-05   -0.74110E-06  4136   0.209E-02    0.563E-03
DAV:   6    -0.139654032043E+03    0.60819E-06   -0.60309E-06  4080   0.117E-02
  28 F= -.13965403E+03 E0= -.13965129E+03  d E =-.844505E-03
       N       E                     dE             d eps       ncg     rms          rms(c)
DAV:   1    -0.139653931328E+03    0.10132E-03   -0.28600E-01  6664   0.227E+00    0.676E-02
DAV:   2    -0.139654431808E+03   -0.50048E-03   -0.60153E-03  7376   0.317E-01    0.439E-02
DAV:   3    -0.139654372534E+03    0.59274E-04   -0.10412E-04  7432   0.558E-02    0.301E-02
DAV:   4    -0.139654347117E+03    0.25416E-04   -0.51446E-05  7232   0.401E-02    0.181E-02
DAV:   5    -0.139654325180E+03    0.21937E-04   -0.34282E-05  6672   0.416E-02    0.656E-03
DAV:   6    -0.139654323233E+03    0.19469E-05   -0.21989E-05  5160   0.268E-02
  29 F= -.13965432E+03 E0= -.13965156E+03  d E =-.291190E-03
       N       E                     dE             d eps       ncg     rms          rms(c)
DAV:   1    -0.139654319397E+03    0.57836E-05   -0.23530E-03  6480   0.207E-01    0.685E-03
DAV:   2    -0.139654323265E+03   -0.38687E-05   -0.50876E-05  6648   0.301E-02    0.443E-03
DAV:   3    -0.139654322812E+03    0.45359E-06   -0.18053E-06  3824   0.636E-03    0.295E-03
DAV:   4    -0.139654322579E+03    0.23277E-06   -0.47505E-07  3496   0.347E-03    0.171E-03
DAV:   5    -0.139654322377E+03    0.20216E-06   -0.30820E-07  3400   0.395E-03    0.803E-04
DAV:   6    -0.139654322301E+03    0.75857E-07   -0.17710E-07  3336   0.310E-03
  30 F= -.13965432E+03 E0= -.13965157E+03  d E =-.290258E-03
       N       E                     dE             d eps       ncg     rms          rms(c)
DAV:   1    -0.139654341812E+03   -0.19435E-04   -0.78530E-02  6456   0.118E+00    0.350E-02
DAV:   2    -0.139654485359E+03   -0.14355E-03   -0.16688E-03  7240   0.165E-01    0.228E-02
DAV:   3    -0.139654471526E+03    0.13833E-04   -0.19298E-05  5096   0.228E-02    0.164E-02
DAV:   4    -0.139654463749E+03    0.77769E-05   -0.15582E-05  4576   0.248E-02    0.889E-03
DAV:   5    -0.139654457755E+03    0.59936E-05   -0.19762E-05  4880   0.281E-02    0.524E-03
DAV:   6    -0.139654457460E+03    0.29486E-06   -0.73662E-06  4008   0.122E-02
  31 F= -.13965446E+03 E0= -.13965170E+03  d E =-.135159E-03
