       N       E                     dE             d eps       ncg     rms          rms(c)
DAV:   1     0.502600493142E+03    0.50260E+03   -0.44671E+04  2696   0.135E+03
DAV:   2    -0.104476180650E+03   -0.60708E+03   -0.57840E+03  3480   0.261E+02
DAV:   3    -0.157774460778E+03   -0.53298E+02   -0.53043E+02  3160   0.843E+01
DAV:   4    -0.158413070180E+03   -0.63861E+00   -0.63770E+00  3136   0.101E+01
DAV:   5    -0.158422453268E+03   -0.93831E-02   -0.93804E-02  3232   0.120E+00    0.236E+01
DAV:   6    -0.141604551708E+03    0.16818E+02   -0.92908E+01  3200   0.333E+01    0.792E+00
DAV:   7    -0.141596896268E+03    0.76554E-02   -0.30101E+00  3000   0.629E+00    0.494E+00
DAV:   8    -0.141447087346E+03    0.14981E+00   -0.69422E-01  3120   0.446E+00    0.125E+00
DAV:   9    -0.141411519824E+03    0.35568E-01   -0.14621E-01  3104   0.188E+00    0.632E-01
DAV:  10    -0.141405785604E+03    0.57342E-02   -0.73136E-02  3032   0.100E+00    0.277E-01
DAV:  11    -0.141399416879E+03    0.63687E-02   -0.72155E-03  3272   0.648E-01    0.204E-01
DAV:  12    -0.141395429208E+03    0.39877E-02   -0.45722E-03  3472   0.444E-01    0.148E-01
DAV:  13    -0.141386825932E+03    0.86033E-02   -0.51570E-03  4288   0.812E-01    0.847E-02
DAV:  14    -0.141381810198E+03    0.50157E-02   -0.81830E-03  3520   0.742E-01    0.112E-01
DAV:  15    -0.141371750759E+03    0.10059E-01   -0.12054E-02  4288   0.168E+00    0.105E-01
DAV:  16    -0.141370362132E+03    0.13886E-02   -0.11286E-02  3056   0.666E-01    0.881E-02
DAV:  17    -0.141368976264E+03    0.13859E-02   -0.63237E-03  3112   0.560E-01    0.118E-01
DAV:  18    -0.141367170173E+03    0.18061E-02   -0.23510E-03  4408   0.778E-01    0.106E-01
DAV:  19    -0.141366565776E+03    0.60440E-03   -0.29851E-03  3352   0.473E-01    0.639E-02
DAV:  20    -0.141366343334E+03    0.22244E-03   -0.34982E-03  4096   0.580E-01    0.743E-02
DAV:  21    -0.141366490051E+03   -0.14672E-03   -0.26114E-03  2960   0.241E-01    0.890E-02
DAV:  22    -0.141366346759E+03    0.14329E-03   -0.61167E-04  2936   0.118E-01    0.380E-02
DAV:  23    -0.141366317774E+03    0.28985E-04   -0.14590E-04  3016   0.755E-02    0.187E-02
DAV:  24    -0.141366313543E+03    0.42312E-05   -0.70454E-05  2872   0.512E-02
   1 F= -.14136631E+03 E0= -.14136462E+03  d E =-.141366E+03
       N       E                     dE             d eps       ncg     rms          rms(c)
DAV:   1    -0.141362854357E+03    0.34634E-02   -0.17434E+00  2720   0.506E+00    0.278E-01
DAV:   2    -0.141367384378E+03   -0.45300E-02   -0.67906E-02  2984   0.831E-01    0.218E-01
DAV:   3    -0.141366276394E+03    0.11080E-02   -0.12615E-03  3152   0.193E-01    0.144E-01
DAV:   4    -0.141365170245E+03    0.11061E-02   -0.31711E-03  3072   0.291E-01    0.447E-02
DAV:   5    -0.141365081729E+03    0.88515E-04   -0.10239E-03  3040   0.134E-01    0.288E-02
DAV:   6    -0.141364903214E+03    0.17852E-03   -0.15103E-04  3240   0.760E-02    0.258E-02
DAV:   7    -0.141364808108E+03    0.95106E-04   -0.67999E-05  3088   0.610E-02    0.175E-02
DAV:   8    -0.141364520576E+03    0.28753E-03   -0.32687E-04  3800   0.194E-01    0.179E-02
DAV:   9    -0.141364450083E+03    0.70492E-04   -0.21750E-04  3152   0.828E-02    0.123E-02
DAV:  10    -0.141364373421E+03    0.76662E-04   -0.11805E-04  3096   0.111E-01    0.302E-02
DAV:  11    -0.141364266853E+03    0.10657E-03   -0.12615E-04  3920   0.150E-01    0.151E-02
DAV:  12    -0.141364213933E+03    0.52920E-04   -0.16675E-04  3520   0.146E-01    0.751E-03
DAV:  13    -0.141364193722E+03    0.20211E-04   -0.12978E-04  2968   0.106E-01    0.869E-03
DAV:  14    -0.141364170873E+03    0.22850E-04   -0.45501E-05  2760   0.114E-01    0.478E-03
DAV:  15    -0.141364173440E+03   -0.25669E-05   -0.85053E-05  2648   0.593E-02
   2 F= -.14136417E+03 E0= -.14136257E+03  d E =0.214010E-02
       N       E                     dE             d eps       ncg     rms          rms(c)
DAV:   1    -0.141369905635E+03   -0.57348E-02   -0.52719E-01  2744   0.282E+00    0.153E-01
DAV:   2    -0.141371174523E+03   -0.12689E-02   -0.19873E-02  2984   0.463E-01    0.116E-01
DAV:   3    -0.141370829518E+03    0.34501E-03   -0.35012E-04  3168   0.107E-01    0.766E-02
DAV:   4    -0.141370488857E+03    0.34066E-03   -0.91476E-04  3080   0.171E-01    0.216E-02
DAV:   5    -0.141370466157E+03    0.22700E-04   -0.32742E-04  3008   0.754E-02    0.169E-02
DAV:   6    -0.141370412909E+03    0.53247E-04   -0.37166E-05  2872   0.418E-02    0.133E-02
DAV:   7    -0.141370383665E+03    0.29245E-04   -0.22716E-05  2464   0.372E-02    0.874E-03
DAV:   8    -0.141370302653E+03    0.81012E-04   -0.76059E-05  3520   0.105E-01    0.691E-03
DAV:   9    -0.141370284428E+03    0.18225E-04   -0.66066E-05  2928   0.475E-02    0.701E-03
DAV:  10    -0.141370263414E+03    0.21014E-04   -0.32159E-05  2824   0.601E-02    0.162E-02
DAV:  11    -0.141370235796E+03    0.27618E-04   -0.31118E-05  2576   0.759E-02    0.790E-03
DAV:  12    -0.141370219843E+03    0.15953E-04   -0.53906E-05  3024   0.850E-02    0.481E-03
DAV:  13    -0.141370213821E+03    0.60225E-05   -0.45284E-05  2608   0.588E-02
   3 F= -.14137021E+03 E0= -.14136857E+03  d E =-.390028E-02
       N       E                     dE             d eps       ncg     rms          rms(c)
DAV:   1    -0.141370789202E+03   -0.56936E-03   -0.98396E-02  2784   0.127E+00    0.504E-02
DAV:   2    -0.141370991163E+03   -0.20196E-03   -0.24905E-03  3024   0.176E-01    0.321E-02
DAV:   3    -0.141370969310E+03    0.21853E-04   -0.44149E-05  2976   0.360E-02    0.204E-02
DAV:   4    -0.141370958609E+03    0.10701E-04   -0.25927E-05  2488   0.247E-02    0.913E-03
DAV:   5    -0.141370954720E+03    0.38898E-05   -0.10086E-05  1920   0.197E-02    0.340E-03
DAV:   6    -0.141370952759E+03    0.19607E-05   -0.57934E-06  1712   0.154E-02
   4 F= -.14137095E+03 E0= -.14136933E+03  d E =-.738938E-03
       N       E                     dE             d eps       ncg     rms          rms(c)
DAV:   1    -0.141371017823E+03   -0.63103E-04   -0.33723E-01  2688   0.233E+00    0.928E-02
DAV:   2    -0.141371660095E+03   -0.64227E-03   -0.80732E-03  2992   0.313E-01    0.544E-02
DAV:   3    -0.141371587476E+03    0.72619E-04   -0.12943E-04  3080   0.594E-02    0.355E-02
DAV:   4    -0.141371545615E+03    0.41860E-04   -0.76329E-05  3008   0.448E-02    0.162E-02
DAV:   5    -0.141371527803E+03    0.17812E-04   -0.39635E-05  2816   0.383E-02    0.633E-03
DAV:   6    -0.141371517312E+03    0.10491E-04   -0.15723E-05  2080   0.269E-02    0.445E-03
DAV:   7    -0.141371511654E+03    0.56581E-05   -0.66156E-06  1736   0.160E-02
   5 F= -.14137151E+03 E0= -.14136993E+03  d E =-.129783E-02
       N       E                     dE             d eps       ncg     rms          rms(c)
DAV:   1    -0.141371855478E+03   -0.33817E-03   -0.13155E-01  2744   0.142E+00    0.559E-02
DAV:   2    -0.141372136228E+03   -0.28075E-03   -0.33110E-03  2968   0.206E-01    0.337E-02
DAV:   3    -0.141372111932E+03    0.24297E-04   -0.41952E-05  2976   0.342E-02    0.233E-02
DAV:   4    -0.141372092417E+03    0.19515E-04   -0.77539E-05  2880   0.422E-02    0.917E-03
DAV:   5    -0.141372090076E+03    0.23410E-05   -0.16731E-05  2224   0.209E-02    0.646E-03
DAV:   6    -0.141372084670E+03    0.54063E-05   -0.13924E-05  2016   0.268E-02
   6 F= -.14137208E+03 E0= -.14137052E+03  d E =-.573016E-03
       N       E                     dE             d eps       ncg     rms          rms(c)
DAV:   1    -0.141371957746E+03    0.13233E-03   -0.22879E-01  2712   0.187E+00    0.753E-02
DAV:   2    -0.141372452019E+03   -0.49427E-03   -0.57825E-03  2968   0.269E-01    0.442E-02
DAV:   3    -0.141372411551E+03    0.40468E-04   -0.69230E-05  3104   0.442E-02    0.303E-02
DAV:   4    -0.141372383782E+03    0.27769E-04   -0.14230E-04  2992   0.556E-02    0.124E-02
DAV:   5    -0.141372381766E+03    0.20160E-05   -0.29069E-05  2464   0.260E-02    0.865E-03
DAV:   6    -0.141372376715E+03    0.50507E-05   -0.26732E-05  2320   0.329E-02
   7 F= -.14137238E+03 E0= -.14137084E+03  d E =-.865061E-03
       N       E                     dE             d eps       ncg     rms          rms(c)
DAV:   1    -0.141372757743E+03   -0.37598E-03   -0.25399E-02  2752   0.698E-01    0.279E-02
DAV:   2    -0.141372803319E+03   -0.45576E-04   -0.55159E-04  3032   0.968E-02    0.168E-02
DAV:   3    -0.141372799681E+03    0.36371E-05   -0.12226E-05  1752   0.169E-02    0.115E-02
DAV:   4    -0.141372796579E+03    0.31021E-05   -0.13844E-05  1864   0.190E-02    0.471E-03
DAV:   5    -0.141372795909E+03    0.67061E-06   -0.26482E-06  1656   0.121E-02    0.389E-03
DAV:   6    -0.141372794982E+03    0.92689E-06   -0.42122E-06  1712   0.172E-02
   8 F= -.14137279E+03 E0= -.14137127E+03  d E =-.418267E-03
       N       E                     dE             d eps       ncg     rms          rms(c)
DAV:   1    -0.141372944765E+03   -0.14886E-03   -0.72168E-02  2704   0.118E+00    0.484E-02
DAV:   2    -0.141373070998E+03   -0.12623E-03   -0.16774E-03  3048   0.169E-01    0.289E-02
DAV:   3    -0.141373056976E+03    0.14022E-04   -0.48709E-05  2976   0.330E-02    0.205E-02
DAV:   4    -0.141373042823E+03    0.14154E-04   -0.42654E-05  2872   0.327E-02    0.103E-02
DAV:   5    -0.141373035113E+03    0.77101E-05   -0.64238E-06  1784   0.236E-02    0.766E-03
DAV:   6    -0.141373028461E+03    0.66523E-05   -0.21434E-05  2296   0.306E-02
   9 F= -.14137303E+03 E0= -.14137152E+03  d E =-.651745E-03
       N       E                     dE             d eps       ncg     rms          rms(c)
DAV:   1    -0.141373278767E+03   -0.24365E-03   -0.77886E-02  2744   0.121E+00    0.418E-02
DAV:   2    -0.141373432674E+03   -0.15391E-03   -0.17992E-03  2992   0.170E-01    0.217E-02
DAV:   3    -0.141373419940E+03    0.12734E-04   -0.31991E-05  2528   0.320E-02    0.151E-02
DAV:   4    -0.141373408235E+03    0.11705E-04   -0.19837E-05  2080   0.311E-02    0.659E-03
DAV:   5    -0.141373402951E+03    0.52837E-05   -0.10529E-05  1712   0.255E-02    0.533E-03
DAV:   6    -0.141373398940E+03    0.40108E-05   -0.86922E-06  1704   0.204E-02
  10 F= -.14137340E+03 E0= -.14137190E+03  d E =-.370480E-03
       N       E                     dE             d eps       ncg     rms          rms(c)
DAV:   1    -0.141372703094E+03    0.69986E-03   -0.70013E-01  2696   0.363E+00    0.122E-01
DAV:   2    -0.141374093449E+03   -0.13904E-02   -0.15950E-02  2992   0.506E-01    0.657E-02
DAV:   3    -0.141373991782E+03    0.10167E-03   -0.24931E-04  3272   0.893E-02    0.463E-02
DAV:   4    -0.141373911025E+03    0.80757E-04   -0.20773E-04  3040   0.948E-02    0.196E-02
DAV:   5    -0.141373892572E+03    0.18453E-04   -0.10187E-04  3048   0.639E-02    0.159E-02
DAV:   6    -0.141373879212E+03    0.13360E-04   -0.51116E-05  2720   0.374E-02    0.843E-03
DAV:   7    -0.141373857810E+03    0.21402E-04   -0.48784E-06  1688   0.359E-02    0.510E-03
DAV:   8    -0.141373834939E+03    0.22871E-04   -0.93025E-06  1976   0.440E-02    0.413E-03
DAV:   9    -0.141373788046E+03    0.46894E-04   -0.35610E-05  2744   0.107E-01    0.409E-03
DAV:  10    -0.141373743539E+03    0.44506E-04   -0.90536E-05  3352   0.163E-01    0.701E-03
DAV:  11    -0.141373735981E+03    0.75582E-05   -0.10455E-04  2888   0.104E-01    0.584E-03
DAV:  12    -0.141373742553E+03   -0.65722E-05   -0.85033E-05  2528   0.323E-02
  11 F= -.14137374E+03 E0= -.14137228E+03  d E =-.714093E-03
       N       E                     dE             d eps       ncg     rms          rms(c)
DAV:   1    -0.141373886303E+03   -0.15032E-03   -0.21107E-01  2768   0.201E+00    0.664E-02
DAV:   2    -0.141374335672E+03   -0.44937E-03   -0.49578E-03  2952   0.281E-01    0.352E-02
DAV:   3    -0.141374305484E+03    0.30188E-04   -0.45502E-05  3064   0.352E-02    0.241E-02
DAV:   4    -0.141374282780E+03    0.22704E-04   -0.82402E-05  2960   0.538E-02    0.806E-03
DAV:   5    -0.141374282885E+03   -0.10538E-06   -0.28700E-05  2392   0.236E-02    0.774E-03
DAV:   6    -0.141374280015E+03    0.28702E-05   -0.97496E-06  1688   0.167E-02
  12 F= -.14137428E+03 E0= -.14137283E+03  d E =-.537462E-03
       N       E                     dE             d eps       ncg     rms          rms(c)
DAV:   1    -0.141372415784E+03    0.18671E-02   -0.12638E+00  2720   0.492E+00    0.158E-01
DAV:   2    -0.141375102875E+03   -0.26871E-02   -0.29490E-02  2944   0.683E-01    0.870E-02
DAV:   3    -0.141374907842E+03    0.19503E-03   -0.26152E-04  3248   0.888E-02    0.589E-02
DAV:   4    -0.141374737445E+03    0.17040E-03   -0.46163E-04  3008   0.136E-01    0.174E-02
DAV:   5    -0.141374728633E+03    0.88117E-05   -0.19292E-04  2992   0.620E-02    0.157E-02
DAV:   6    -0.141374701484E+03    0.27149E-04   -0.42639E-05  2680   0.376E-02    0.914E-03
DAV:   7    -0.141374665008E+03    0.36475E-04   -0.83770E-06  1928   0.453E-02    0.111E-02
DAV:   8    -0.141374636383E+03    0.28626E-04   -0.20211E-05  2264   0.431E-02    0.869E-03
DAV:   9    -0.141374593970E+03    0.42412E-04   -0.31606E-05  2592   0.719E-02    0.593E-03
DAV:  10    -0.141374529274E+03    0.64696E-04   -0.74188E-05  3480   0.145E-01    0.105E-02
DAV:  11    -0.141374516741E+03    0.12533E-04   -0.10199E-04  2864   0.725E-02    0.964E-03
DAV:  12    -0.141374509532E+03    0.72088E-05   -0.55431E-05  2752   0.589E-02
  13 F= -.14137451E+03 E0= -.14137309E+03  d E =-.766979E-03
       N       E                     dE             d eps       ncg     rms          rms(c)
DAV:   1    -0.141374407152E+03    0.10959E-03   -0.90997E-02  2832   0.132E+00    0.448E-02
DAV:   2    -0.141374611499E+03   -0.20435E-03   -0.22927E-03  2944   0.191E-01    0.245E-02
DAV:   3    -0.141374597232E+03    0.14268E-04   -0.24920E-05  2352   0.280E-02    0.169E-02
DAV:   4    -0.141374585174E+03    0.12057E-04   -0.47679E-05  2840   0.426E-02    0.630E-03
DAV:   5    -0.141374584698E+03    0.47687E-06   -0.16335E-05  1952   0.190E-02    0.600E-03
DAV:   6    -0.141374583496E+03    0.12018E-05   -0.44579E-06  1672   0.103E-02
  14 F= -.14137458E+03 E0= -.14137315E+03  d E =-.840943E-03
       N       E                     dE             d eps       ncg     rms          rms(c)
DAV:   1    -0.141374785811E+03   -0.20111E-03   -0.27209E-01  2752   0.228E+00    0.653E-02
DAV:   2    -0.141375282179E+03   -0.49637E-03   -0.55009E-03  3056   0.303E-01    0.378E-02
DAV:   3    -0.141375243726E+03    0.38452E-04   -0.58687E-05  3016   0.431E-02    0.257E-02
DAV:   4    -0.141375209212E+03    0.34515E-04   -0.92094E-05  3096   0.686E-02    0.810E-03
DAV:   5    -0.141375211761E+03   -0.25491E-05   -0.60787E-05  2776   0.339E-02    0.105E-02
DAV:   6    -0.141375211626E+03    0.13495E-06   -0.36946E-06  1648   0.781E-03
  15 F= -.14137521E+03 E0= -.14137380E+03  d E =-.628130E-03
       N       E                     dE             d eps       ncg     rms          rms(c)
DAV:   1    -0.141374804576E+03    0.40718E-03   -0.43683E-01  2736   0.290E+00    0.859E-02
DAV:   2    -0.141375596969E+03   -0.79239E-03   -0.88272E-03  3040   0.383E-01    0.467E-02
DAV:   3    -0.141375531476E+03    0.65493E-04   -0.89928E-05  3176   0.582E-02    0.319E-02
DAV:   4    -0.141375466793E+03    0.64683E-04   -0.15107E-04  3200   0.970E-02    0.106E-02
DAV:   5    -0.141375467349E+03   -0.55664E-06   -0.11512E-04  2896   0.490E-02    0.143E-02
DAV:   6    -0.141375468176E+03   -0.82632E-06   -0.10093E-05  1664   0.121E-02
  16 F= -.14137547E+03 E0= -.14137406E+03  d E =-.884680E-03
       N       E                     dE             d eps       ncg     rms          rms(c)
DAV:   1    -0.141375655806E+03   -0.18846E-03   -0.11870E-01  2704   0.153E+00    0.517E-02
DAV:   2    -0.141375891325E+03   -0.23552E-03   -0.27370E-03  2992   0.214E-01    0.252E-02
DAV:   3    -0.141375874203E+03    0.17122E-04   -0.35213E-05  2608   0.346E-02    0.171E-02
DAV:   4    -0.141375859075E+03    0.15129E-04   -0.36916E-05  2648   0.462E-02    0.702E-03
DAV:   5    -0.141375855213E+03    0.38615E-05   -0.21488E-05  1976   0.285E-02    0.600E-03
DAV:   6    -0.141375851448E+03    0.37654E-05   -0.54355E-06  1680   0.157E-02
  17 F= -.14137585E+03 E0= -.14137446E+03  d E =-.383272E-03
       N       E                     dE             d eps       ncg     rms          rms(c)
DAV:   1    -0.141374395894E+03    0.14593E-02   -0.10677E+00  2688   0.459E+00    0.136E-01
DAV:   2    -0.141376536028E+03   -0.21401E-02   -0.23804E-02  2992   0.630E-01    0.768E-02
DAV:   3    -0.141376413539E+03    0.12249E-03   -0.28705E-04  3248   0.808E-02    0.526E-02
DAV:   4    -0.141376333207E+03    0.80332E-04   -0.40434E-04  2992   0.111E-01    0.198E-02
DAV:   5    -0.141376336340E+03   -0.31327E-05   -0.12651E-04  2952   0.493E-02    0.168E-02
DAV:   6    -0.141376332041E+03    0.42988E-05   -0.26151E-05  2176   0.240E-02
  18 F= -.14137633E+03 E0= -.14137498E+03  d E =-.863865E-03
       N       E                     dE             d eps       ncg     rms          rms(c)
DAV:   1    -0.141376568628E+03   -0.23229E-03   -0.61869E-02  2704   0.110E+00    0.340E-02
DAV:   2    -0.141376690173E+03   -0.12155E-03   -0.13226E-03  3008   0.148E-01    0.186E-02
DAV:   3    -0.141376685466E+03    0.47073E-05   -0.21197E-05  2160   0.212E-02    0.130E-02
DAV:   4    -0.141376682210E+03    0.32559E-05   -0.19348E-05  1952   0.264E-02    0.515E-03
DAV:   5    -0.141376682319E+03   -0.10844E-06   -0.86842E-06  1680   0.151E-02    0.576E-03
DAV:   6    -0.141376681724E+03    0.59491E-06   -0.23481E-06  1672   0.873E-03
  19 F= -.14137668E+03 E0= -.14137534E+03  d E =-.349683E-03
       N       E                     dE             d eps       ncg     rms          rms(c)
DAV:   1    -0.141376147045E+03    0.53527E-03   -0.55777E-01  2688   0.330E+00    0.101E-01
DAV:   2    -0.141377232757E+03   -0.10857E-02   -0.12129E-02  3000   0.450E-01    0.551E-02
DAV:   3    -0.141377186334E+03    0.46423E-04   -0.24381E-04  3248   0.663E-02    0.403E-02
DAV:   4    -0.141377144928E+03    0.41406E-04   -0.17174E-04  3040   0.621E-02    0.198E-02
DAV:   5    -0.141377125954E+03    0.18974E-04   -0.39957E-05  2808   0.404E-02    0.189E-02
DAV:   6    -0.141377103432E+03    0.22522E-04   -0.41391E-05  2512   0.502E-02    0.857E-03
DAV:   7    -0.141377097237E+03    0.61952E-05   -0.28833E-05  2400   0.259E-02
  20 F= -.14137710E+03 E0= -.14137578E+03  d E =-.765196E-03
       N       E                     dE             d eps       ncg     rms          rms(c)
DAV:   1    -0.141377186707E+03   -0.83275E-04   -0.15757E-01  2752   0.178E+00    0.574E-02
DAV:   2    -0.141377505853E+03   -0.31915E-03   -0.38241E-03  2968   0.262E-01    0.302E-02
DAV:   3    -0.141377484755E+03    0.21099E-04   -0.10417E-04  3112   0.475E-02    0.220E-02
DAV:   4    -0.141377466559E+03    0.18196E-04   -0.31222E-05  2416   0.258E-02    0.108E-02
DAV:   5    -0.141377451514E+03    0.15045E-04   -0.12806E-05  1824   0.358E-02    0.750E-03
DAV:   6    -0.141377442723E+03    0.87912E-05   -0.14551E-05  1976   0.365E-02
  21 F= -.14137744E+03 E0= -.14137613E+03  d E =-.345486E-03
       N       E                     dE             d eps       ncg     rms          rms(c)
DAV:   1    -0.141376996678E+03    0.45484E-03   -0.32928E-01  2720   0.257E+00    0.813E-02
DAV:   2    -0.141377678298E+03   -0.68162E-03   -0.79063E-03  2976   0.372E-01    0.434E-02
DAV:   3    -0.141377634915E+03    0.43383E-04   -0.15690E-04  3216   0.589E-02    0.313E-02
DAV:   4    -0.141377599224E+03    0.35691E-04   -0.91835E-05  2960   0.461E-02    0.139E-02
DAV:   5    -0.141377586005E+03    0.13219E-04   -0.26529E-05  2280   0.433E-02    0.109E-02
DAV:   6    -0.141377577059E+03    0.89456E-05   -0.29000E-05  2240   0.488E-02
  22 F= -.14137758E+03 E0= -.14137628E+03  d E =-.479823E-03
       N       E                     dE             d eps       ncg     rms          rms(c)
DAV:   1    -0.141377430922E+03    0.15508E-03   -0.27021E-01  2752   0.225E+00    0.678E-02
DAV:   2    -0.141377989089E+03   -0.55817E-03   -0.60680E-03  3000   0.312E-01    0.384E-02
DAV:   3    -0.141377956871E+03    0.32218E-04   -0.71020E-05  3096   0.406E-02    0.267E-02
DAV:   4    -0.141377933821E+03    0.23049E-04   -0.12924E-04  2984   0.638E-02    0.116E-02
DAV:   5    -0.141377934748E+03   -0.92640E-06   -0.40290E-05  2640   0.283E-02    0.121E-02
DAV:   6    -0.141377932882E+03    0.18660E-05   -0.69580E-06  1680   0.118E-02
  23 F= -.14137793E+03 E0= -.14137663E+03  d E =-.355823E-03
       N       E                     dE             d eps       ncg     rms          rms(c)
DAV:   1    -0.141377486802E+03    0.44795E-03   -0.32348E-01  2744   0.247E+00    0.721E-02
DAV:   2    -0.141378144265E+03   -0.65746E-03   -0.71807E-03  2984   0.340E-01    0.426E-02
DAV:   3    -0.141378101904E+03    0.42362E-04   -0.80775E-05  3112   0.471E-02    0.301E-02
DAV:   4    -0.141378061648E+03    0.40256E-04   -0.13278E-04  3040   0.773E-02    0.114E-02
DAV:   5    -0.141378060678E+03    0.97024E-06   -0.68697E-05  2784   0.387E-02    0.131E-02
DAV:   6    -0.141378058340E+03    0.23371E-05   -0.90409E-06  1680   0.131E-02
  24 F= -.14137806E+03 E0= -.14137675E+03  d E =-.481281E-03
       N       E                     dE             d eps       ncg     rms          rms(c)
DAV:   1    -0.141378196840E+03   -0.13616E-03   -0.53061E-02  2904   0.985E-01    0.307E-02
DAV:   2    -0.141378276317E+03   -0.79477E-04   -0.11524E-03  3024   0.143E-01    0.194E-02
DAV:   3    -0.141378258185E+03    0.18132E-04   -0.28899E-05  2400   0.345E-02    0.146E-02
DAV:   4    -0.141378235934E+03    0.22251E-04   -0.13231E-05  1840   0.384E-02    0.802E-03
DAV:   5    -0.141378213826E+03    0.22108E-04   -0.25767E-05  2352   0.543E-02    0.619E-03
DAV:   6    -0.141378200894E+03    0.12932E-04   -0.28420E-05  2280   0.481E-02    0.483E-03
DAV:   7    -0.141378179226E+03    0.21668E-04   -0.14751E-05  2048   0.735E-02    0.831E-03
DAV:   8    -0.141378159387E+03    0.19839E-04   -0.37790E-05  2672   0.855E-02    0.947E-03
DAV:   9    -0.141378159038E+03    0.34905E-06   -0.41984E-05  2496   0.250E-02
  25 F= -.14137816E+03 E0= -.14137685E+03  d E =-.100698E-03
       N       E                     dE             d eps       ncg     rms          rms(c)
DAV:   1    -0.141378150531E+03    0.88565E-05   -0.22097E-04  2704   0.713E-02    0.362E-03
DAV:   2    -0.141378150634E+03   -0.10309E-06   -0.20661E-05  2088   0.197E-02    0.472E-03
DAV:   3    -0.141378149931E+03    0.70311E-06   -0.17000E-06  1656   0.644E-03    0.341E-03
DAV:   4    -0.141378147942E+03    0.19881E-05   -0.15456E-06  1696   0.915E-03    0.177E-03
DAV:   5    -0.141378144887E+03    0.30557E-05   -0.26977E-06  1784   0.178E-02    0.350E-03
DAV:   6    -0.141378141703E+03    0.31835E-05   -0.37930E-06  1744   0.234E-02
  26 F= -.14137814E+03 E0= -.14137683E+03  d E =-.833628E-04
       N       E                     dE             d eps       ncg     rms          rms(c)
DAV:   1    -0.141378197600E+03   -0.52714E-04   -0.14287E-02  2984   0.519E-01    0.153E-02
DAV:   2    -0.141378220969E+03   -0.23369E-04   -0.31100E-04  2992   0.736E-02    0.105E-02
DAV:   3    -0.141378217695E+03    0.32736E-05   -0.57337E-06  1680   0.133E-02    0.742E-03
DAV:   4    -0.141378214965E+03    0.27302E-05   -0.46616E-06  1720   0.132E-02    0.337E-03
DAV:   5    -0.141378214101E+03    0.86412E-06   -0.29479E-06  1656   0.112E-02    0.170E-03
DAV:   6    -0.141378213629E+03    0.47265E-06   -0.15285E-06  1680   0.881E-03
  27 F= -.14137821E+03 E0= -.14137690E+03  d E =-.719253E-04
