 vasp.5.3.5 31Mar14 (build Apr 08 2024 10:12:10) complex                        
  
 executed on             LinuxIFC date 2024.07.29  18:39:53
 running on    8 total cores
 distrk:  each k-point on    8 cores,    1 groups
 distr:  one band on NCORES_PER_BAND=   4 cores,    2 groups


--------------------------------------------------------------------------------------------------------


 INCAR:
 POTCAR:    PAW_PBE O 08Apr2002                   
 POTCAR:    PAW_PBE Mg 13Apr2007                  
 POTCAR:    PAW_PBE Al 04Jan2001                  
 POTCAR:    PAW_PBE O 08Apr2002                   
   VRHFIN =O: s2p4                                                              
   LEXCH  = PE                                                                  
   EATOM  =   432.3788 eV,   31.7789 Ry                                         
                                                                                
   TITEL  = PAW_PBE O 08Apr2002                                                 
   LULTRA =        F    use ultrasoft PP ?                                      
   IUNSCR =        1    unscreen: 0-lin 1-nonlin 2-no                           
   RPACOR =    1.200    partial core radius                                     
   POMASS =   16.000; ZVAL   =    6.000    mass and valenz                      
   RCORE  =    1.520    outmost cutoff radius                                   
   RWIGS  =    1.550; RWIGS  =    0.820    wigner-seitz radius (au A)           
   ENMAX  =  400.000; ENMIN  =  300.000 eV                                      
   ICORE  =        2    local potential                                         
   LCOR   =        T    correct aug charges                                     
   LPAW   =        T    paw PP                                                  
   EAUG   =  605.392                                                            
   DEXC   =    0.000                                                            
   RMAX   =    1.553    core radius for proj-oper                               
   RAUG   =    1.300    factor for augmentation sphere                          
   RDEP   =    1.550    radius for radial grids                                 
   RDEPT  =    1.329    core radius for aug-charge                              
                                                                                
   Atomic configuration                                                         
    4 entries                                                                   
     n  l   j            E        occ.                                          
     1  0  0.50      -514.6923   2.0000                                         
     2  0  0.50       -23.9615   2.0000                                         
     2  1  0.50        -9.0305   4.0000                                         
     3  2  1.50        -9.5241   0.0000                                         
   Description                                                                  
     l       E           TYP  RCUT    TYP  RCUT                                 
     0    -23.9615318     23  1.200                                             
     0     -9.5240782     23  1.200                                             
     1     -9.0304911     23  1.520                                             
     1      8.1634956     23  1.520                                             
     2     -9.5240782      7  1.500                                             
  local pseudopotential read in
  partial core-charges read in
  partial kinetic energy density read in
  kinetic energy density of atom read in
  atomic valenz-charges read in
  non local Contribution for L=           0  read in
    real space projection operators read in
  non local Contribution for L=           0  read in
    real space projection operators read in
  non local Contribution for L=           1  read in
    real space projection operators read in
  non local Contribution for L=           1  read in
    real space projection operators read in
    PAW grid and wavefunctions read in
 
   number of l-projection  operators is LMAX  =           4
   number of lm-projection operators is LMMAX =           8
 
 POTCAR:    PAW_PBE Mg 13Apr2007                  
   VRHFIN =Mg: s2p0                                                             
   LEXCH  = PE                                                                  
   EATOM  =    23.0369 eV,    1.6932 Ry                                         
                                                                                
   TITEL  = PAW_PBE Mg 13Apr2007                                                
   LULTRA =        F    use ultrasoft PP ?                                      
   IUNSCR =        1    unscreen: 0-lin 1-nonlin 2-no                           
   RPACOR =    1.500    partial core radius                                     
   POMASS =   24.305; ZVAL   =    2.000    mass and valenz                      
   RCORE  =    2.000    outmost cutoff radius                                   
   RWIGS  =    2.880; RWIGS  =    1.524    wigner-seitz radius (au A)           
   ENMAX  =  200.000; ENMIN  =  100.000 eV                                      
   RCLOC  =    1.506    cutoff for local pot                                    
   LCOR   =        T    correct aug charges                                     
   LPAW   =        T    paw PP                                                  
   EAUG   =  454.734                                                            
   DEXC   =    0.000                                                            
   RMAX   =    2.045    core radius for proj-oper                               
   RAUG   =    1.300    factor for augmentation sphere                          
   RDEP   =    2.025    radius for radial grids                                 
   RDEPT  =    1.942    core radius for aug-charge                              
                                                                                
   Atomic configuration                                                         
    6 entries                                                                   
     n  l   j            E        occ.                                          
     1  0  0.50     -1259.6230   2.0000                                         
     2  0  0.50       -79.8442   2.0000                                         
     2  1  1.50       -46.6121   6.0000                                         
     3  0  0.50        -4.7055   2.0000                                         
     3  1  0.50        -1.3660   0.0000                                         
     3  2  1.50        -1.3606   0.0000                                         
   Description                                                                  
     l       E           TYP  RCUT    TYP  RCUT                                 
     0     -4.7054661     23  2.000                                             
     0     27.2116520     23  2.000                                             
     1      1.3605826     23  2.000                                             
     1     27.2116520     23  2.000                                             
     2     -1.3605826     23  2.000                                             
  local pseudopotential read in
  partial core-charges read in
  partial kinetic energy density read in
  atomic valenz-charges read in
  non local Contribution for L=           0  read in
    real space projection operators read in
  non local Contribution for L=           0  read in
    real space projection operators read in
  non local Contribution for L=           1  read in
    real space projection operators read in
  non local Contribution for L=           1  read in
    real space projection operators read in
  non local Contribution for L=           2  read in
    real space projection operators read in
    PAW grid and wavefunctions read in
 
   number of l-projection  operators is LMAX  =           5
   number of lm-projection operators is LMMAX =          13
 
 POTCAR:    PAW_PBE Al 04Jan2001                  
   VRHFIN =Al: s2p1                                                             
   LEXCH  = PE                                                                  
   EATOM  =    53.5387 eV,    3.9350 Ry                                         
                                                                                
   TITEL  = PAW_PBE Al 04Jan2001                                                
   LULTRA =        F    use ultrasoft PP ?                                      
   IUNSCR =        1    unscreen: 0-lin 1-nonlin 2-no                           
   RPACOR =    1.500    partial core radius                                     
   POMASS =   26.981; ZVAL   =    3.000    mass and valenz                      
   RCORE  =    1.900    outmost cutoff radius                                   
   RWIGS  =    2.650; RWIGS  =    1.402    wigner-seitz radius (au A)           
   ENMAX  =  240.300; ENMIN  =  180.225 eV                                      
   ICORE  =        2    local potential                                         
   LCOR   =        T    correct aug charges                                     
   LPAW   =        T    paw PP                                                  
   EAUG   =  291.052                                                            
   DEXC   =    0.000                                                            
   RMAX   =    1.939    core radius for proj-oper                               
   RAUG   =    1.300    factor for augmentation sphere                          
   RDEP   =    1.966    radius for radial grids                                 
   RDEPT  =    1.856    core radius for aug-charge                              
                                                                                
   Atomic configuration                                                         
    6 entries                                                                   
     n  l   j            E        occ.                                          
     1  0  0.50     -1511.1048   2.0000                                         
     2  0  0.50      -108.1629   2.0000                                         
     2  1  1.50       -69.6402   6.0000                                         
     3  0  0.50        -7.7528   2.0000                                         
     3  1  1.50        -2.7121   1.0000                                         
     3  2  2.50        -2.7212   0.0000                                         
   Description                                                                  
     l       E           TYP  RCUT    TYP  RCUT                                 
     0     -7.7528455     23  1.900                                             
     0     -3.3096929     23  1.900                                             
     1     -2.7120682     23  1.900                                             
     1     13.6058260     23  1.900                                             
     2     -2.7211652      7  1.900                                             
  local pseudopotential read in
  partial core-charges read in
  partial kinetic energy density read in
  atomic valenz-charges read in
  non local Contribution for L=           0  read in
    real space projection operators read in
  non local Contribution for L=           0  read in
    real space projection operators read in
  non local Contribution for L=           1  read in
    real space projection operators read in
  non local Contribution for L=           1  read in
    real space projection operators read in
    PAW grid and wavefunctions read in
 
   number of l-projection  operators is LMAX  =           4
   number of lm-projection operators is LMMAX =           8
 

 ----------------------------------------------------------------------------- 
|                                                                             |
|  ADVICE TO THIS USER RUNNING 'VASP/VAMP'   (HEAR YOUR MASTER'S VOICE ...):  |
|                                                                             |
|      You have a (more or less) 'large supercell' and for larger cells       |
|      it might be more efficient to use real space projection opertators     |
|      So try LREAL= Auto  in the INCAR   file.                               |
|      Mind: At the moment your POTCAR file does not contain real space       |
|       projectors, and has to be modified,  BUT if you                       |
|      want to do an extremely  accurate calculation you might also keep the  |
|      reciprocal projection scheme          (i.e. LREAL=.FALSE.)             |
|                                                                             |
 ----------------------------------------------------------------------------- 

  PAW_PBE O 08Apr2002                   :
 energy of atom  1       EATOM= -432.3788
 kinetic energy error for atom=    0.0208 (will be added to EATOM!!)
  PAW_PBE Mg 13Apr2007                  :
 energy of atom  2       EATOM=  -23.0369
 kinetic energy error for atom=    0.0000 (will be added to EATOM!!)
  PAW_PBE Al 04Jan2001                  :
 energy of atom  3       EATOM=  -53.5387
 kinetic energy error for atom=    0.0002 (will be added to EATOM!!)
 
 
 POSCAR: Layer                                   
  positions in direct lattice
  velocities in cartesian coordinates
 exchange correlation table for  LEXCH =        8
   RHO(1)=    0.500       N(1)  =     2000
   RHO(2)=  100.500       N(2)  =     4000
 


--------------------------------------------------------------------------------------------------------


 ion  position               nearest neighbor table
   1  0.000  0.000  0.247-  21 1.75  14 2.09  14 2.09  14 2.09
   2  0.333  0.667  0.307-  11 2.15  11 2.15  11 2.15  14 2.15  14 2.15  14 2.15
   3  0.000  0.000  0.432-  15 2.15  15 2.15  15 2.15  17 2.15  17 2.15  17 2.15
   4  0.333  0.667  0.495-  15 2.15  15 2.15  15 2.15  12 2.15  12 2.15  12 2.15
   5  0.000  0.000  0.620-  18 2.14  18 2.14  18 2.14  16 2.15  16 2.15  16 2.15
   6  0.333  0.667  0.682-  16 2.15  16 2.15  16 2.15  13 2.15  13 2.15  13 2.15
   7  0.000  0.000  0.805-  24 1.75  19 2.09  19 2.09  19 2.09
   8  0.667  0.333  0.370-  17 2.15  17 2.15  17 2.15  11 2.15  11 2.15  11 2.15
   9  0.667  0.333  0.557-  18 2.15  18 2.15  18 2.15  12 2.15  12 2.15  12 2.15
  10  0.667  0.333  0.745-  13 2.15  13 2.15  13 2.15  19 2.15  19 2.15  19 2.15
  11  0.000  0.000  0.339-   2 2.15   2 2.15   2 2.15   8 2.15   8 2.15   8 2.15  17 3.07  17 3.07
                            17 3.07  14 3.07  14 3.07  14 3.07
  12  0.000  0.000  0.526-   9 2.15   9 2.15   9 2.15   4 2.15   4 2.15   4 2.15  18 3.07  18 3.07
                            18 3.07  15 3.07  15 3.07  15 3.07
  13  0.000  0.000  0.713-  10 2.15  10 2.15  10 2.15   6 2.15   6 2.15   6 2.15  16 3.07  16 3.07
                            16 3.07  19 3.07  19 3.07  19 3.07
  14  0.667  0.333  0.276-   1 2.09   1 2.09   1 2.09   2 2.15   2 2.15   2 2.15  11 3.07  11 3.07
                            11 3.07  21 3.39  21 3.39  21 3.39
  15  0.667  0.333  0.464-   3 2.15   3 2.15   3 2.15   4 2.15   4 2.15   4 2.15  17 3.07  17 3.07
                            17 3.07  12 3.07  12 3.07  12 3.07
  16  0.667  0.333  0.651-   6 2.15   6 2.15   6 2.15   5 2.15   5 2.15   5 2.15  18 3.07  18 3.07
                            18 3.07  13 3.07  13 3.07  13 3.07
  17  0.333  0.667  0.401-   8 2.15   8 2.15   8 2.15   3 2.15   3 2.15   3 2.15  15 3.07  15 3.07
                            15 3.07  11 3.07  11 3.07  11 3.07
  18  0.333  0.667  0.589-   5 2.14   5 2.14   5 2.14   9 2.15   9 2.15   9 2.15  16 3.07  16 3.07
                            16 3.07  12 3.07  12 3.07  12 3.07
  19  0.333  0.667  0.776-   7 2.09   7 2.09   7 2.09  10 2.15  10 2.15  10 2.15  13 3.07  13 3.07
                            13 3.07  24 3.39  24 3.39  24 3.39
  20  0.000  0.000  0.026-  23 2.96  23 2.96  23 2.96  25 2.96  25 2.96  25 2.96
  21  0.000  0.000  0.204-   1 1.75  22 2.93  22 2.93  22 2.93  14 3.39  14 3.39  14 3.39
  22  0.667  0.333  0.146-  21 2.93  21 2.93  21 2.93  23 2.99  23 2.99  23 2.99
  23  0.333  0.667  0.085-  20 2.96  20 2.96  20 2.96  22 2.99  22 2.99  22 2.99
  24  0.000  0.000  0.848-   7 1.75  26 2.93  26 2.93  26 2.93  19 3.39  19 3.39  19 3.39
  25  0.667  0.333  0.967-  20 2.96  20 2.96  20 2.96  26 2.99  26 2.99  26 2.99
  26  0.333  0.667  0.906-  24 2.93  24 2.93  24 2.93  25 2.99  25 2.99  25 2.99
 
  LATTYP: Found a hexagonal cell.
 ALAT       =     3.0027496481
 C/A-ratio  =    13.4775454268
  
  Lattice vectors:
  
 A1 = (   2.6004576727,  -1.5013744842,   0.0000000000)
 A2 = (   0.0000000000,   3.0027489684,   0.0000000000)
 A3 = (   0.0000000000,  -0.0000000000,  40.4696947879)


Analysis of symmetry for initial positions (statically):
=====================================================================
 Subroutine PRICEL returns:
 Original cell was already a primitive cell.
 

 Routine SETGRP: Setting up the symmetry group for a 
 hexagonal supercell.


 Subroutine GETGRP returns: Found  6 space group operations
 (whereof  6 operations were pure point group operations)
 out of a pool of 24 trial point group operations.


The static configuration has the point symmetry C_3v.


Analysis of symmetry for dynamics (positions and initial velocities):
=====================================================================
 Subroutine PRICEL returns:
 Original cell was already a primitive cell.
 

 Routine SETGRP: Setting up the symmetry group for a 
 hexagonal supercell.


 Subroutine GETGRP returns: Found  6 space group operations
 (whereof  6 operations were pure point group operations)
 out of a pool of 24 trial point group operations.


The dynamic configuration has the point symmetry C_3v.


Analysis of constrained symmetry for selective dynamics:
=====================================================================
 Subroutine PRICEL returns:
 Original cell was already a primitive cell.
 

 Routine SETGRP: Setting up the symmetry group for a 
 hexagonal supercell.


 Subroutine GETGRP returns: Found  6 space group operations
 (whereof  6 operations were pure point group operations)
 out of a pool of 24 trial point group operations.


The constrained configuration has the point symmetry C_3v.
 
 
 KPOINTS: K-Spacing Value to Generate K-Mesh: 0.02

Automatic generation of k-mesh.
Space group operators:
 irot       det(A)        alpha          n_x          n_y          n_z        tau_x        tau_y        tau_z
    1     1.000000     0.000000     1.000000     0.000000     0.000000     0.000000     0.000000     0.000000
    2     1.000000   120.000000    -0.000000    -0.000000    -1.000000     0.000000     0.000000     0.000000
    3     1.000000   120.000000     0.000000    -0.000000     1.000000     0.000000     0.000000     0.000000
    4    -1.000000   180.000000    -0.866025     0.500000     0.000000     0.000000     0.000000     0.000000
    5    -1.000000   180.000000     0.000000     1.000000     0.000000     0.000000     0.000000     0.000000
    6    -1.000000   180.000000    -0.866025    -0.500000     0.000000     0.000000     0.000000     0.000000
 
 Subroutine IBZKPT returns following result:
 ===========================================
 
 Found     21 irreducible k-points:
 
 Following reciprocal coordinates:
            Coordinates               Weight
  0.000000  0.000000  0.000000      1.000000
  0.076923  0.000000  0.000000      6.000000
  0.153846  0.000000 -0.000000      6.000000
  0.230769  0.000000  0.000000      6.000000
  0.307692  0.000000 -0.000000      6.000000
  0.384615  0.000000 -0.000000      6.000000
  0.461538  0.000000  0.000000      6.000000
  0.076923  0.076923  0.000000      6.000000
  0.153846  0.076923  0.000000     12.000000
  0.230769  0.076923 -0.000000     12.000000
  0.307692  0.076923 -0.000000     12.000000
  0.384615  0.076923 -0.000000     12.000000
  0.461538  0.076923 -0.000000      6.000000
  0.153846  0.153846 -0.000000      6.000000
  0.230769  0.153846  0.000000     12.000000
  0.307692  0.153846 -0.000000     12.000000
  0.384615  0.153846 -0.000000     12.000000
  0.230769  0.230769 -0.000000      6.000000
  0.307692  0.230769 -0.000000     12.000000
  0.384615  0.230769 -0.000000      6.000000
  0.307692  0.307692 -0.000000      6.000000
 
 Following cartesian coordinates:
            Coordinates               Weight
  0.000000  0.000000  0.000000      1.000000
  0.029581  0.000000 -0.000000      6.000000
  0.059161  0.000000 -0.000000      6.000000
  0.088742  0.000000 -0.000000      6.000000
  0.118322  0.000000 -0.000000      6.000000
  0.147903  0.000000 -0.000000      6.000000
  0.177484  0.000000 -0.000000      6.000000
  0.044371  0.025618 -0.000000      6.000000
  0.073951  0.025618 -0.000000     12.000000
  0.103532  0.025618 -0.000000     12.000000
  0.133113  0.025618 -0.000000     12.000000
  0.162693  0.025618 -0.000000     12.000000
  0.192274  0.025618 -0.000000      6.000000
  0.088742  0.051235 -0.000000      6.000000
  0.118322  0.051235 -0.000000     12.000000
  0.147903  0.051235 -0.000000     12.000000
  0.177484  0.051235 -0.000000     12.000000
  0.133113  0.076853 -0.000000      6.000000
  0.162693  0.076853 -0.000000     12.000000
  0.192274  0.076853 -0.000000      6.000000
  0.177484  0.102470 -0.000000      6.000000
 


--------------------------------------------------------------------------------------------------------




 Dimension of arrays:
   k-points           NKPTS =     21   k-points in BZ     NKDIM =     21   number of bands    NBANDS=     64
   number of dos      NEDOS =    301   number of ions     NIONS =     26
   non local maximal  LDIM  =      5   non local SUM 2l+1 LMDIM =     13
   total plane-waves  NPLWV = 184320
   max r-space proj   IRMAX =      1   max aug-charges    IRDMAX= 198396
   dimension x,y,z NGX =    24 NGY =   24 NGZ =  320
   dimension x,y,z NGXF=    48 NGYF=   48 NGZF=  640
   support grid    NGXF=    96 NGYF=   96 NGZF= 1280
   ions per type =              10   9   7
 NGX,Y,Z   is equivalent  to a cutoff of  13.29, 13.29, 13.15 a.u.
 NGXF,Y,Z  is equivalent  to a cutoff of  26.57, 26.57, 26.29 a.u.


 I would recommend the setting:
   dimension x,y,z NGX =    22 NGY =   22 NGZ =  301
 SYSTEM =  unknown system                          
 POSCAR =  Layer                                   

 Startparameter for this run:
   NWRITE =      2    write-flag & timer
   PREC   = accura    normal or accurate (medium, high low for compatibility)
   ISTART =      0    job   : 0-new  1-cont  2-samecut
   ICHARG =      2    charge: 1-file 2-atom 10-const
   ISPIN  =      1    spin polarized calculation?
   LNONCOLLINEAR =      F non collinear calculations
   LSORBIT =      F    spin-orbit coupling
   INIWAV =      1    electr: 0-lowe 1-rand  2-diag
   LASPH  =      F    aspherical Exc in radial PAW
   METAGGA=      F    non-selfconsistent MetaGGA calc.

 Electronic Relaxation 1
   ENCUT  =  520.0 eV  38.22 Ry    6.18 a.u.   5.58  5.58 75.25*2*pi/ulx,y,z
   ENINI  =  520.0     initial cutoff
   ENAUG  =  605.4 eV  augmentation charge cutoff
   NELM   =    100;   NELMIN=  6; NELMDL=  0     # of ELM steps 
   EDIFF  = 0.1E-04   stopping-criterion for ELM
   LREAL  =      F    real-space projection
   NLSPLINE    = F    spline interpolate recip. space projectors
   LCOMPAT=      F    compatible to vasp.4.4
   GGA_COMPAT  = T    GGA compatible to vasp.4.4-vasp.4.6
   LMAXPAW     = -100 max onsite density
   LMAXMIX     =    2 max onsite mixed and CHGCAR
   VOSKOWN=      0    Vosko Wilk Nusair interpolation
   ROPT   =    0.00000   0.00000   0.00000
 Ionic relaxation
   EDIFFG = -.2E-01   stopping-criterion for IOM
   NSW    =    500    number of steps for IOM
   NBLOCK =      1;   KBLOCK =    500    inner block; outer block 
   IBRION =      2    ionic relax: 0-MD 1-quasi-New 2-CG
   NFREE  =      1    steps in history (QN), initial steepest desc. (CG)
   ISIF   =      2    stress and relaxation
   IWAVPR =     11    prediction:  0-non 1-charg 2-wave 3-comb
   ISYM   =      2    0-nonsym 1-usesym 2-fastsym
   LCORR  =      T    Harris-Foulkes like correction to forces

   POTIM  = 0.5000    time-step for ionic-motion
   TEIN   =    0.0    initial temperature
   TEBEG  =    0.0;   TEEND  =   0.0 temperature during run
   SMASS  =  -3.00    Nose mass-parameter (am)
   estimated Nose-frequenzy (Omega)   =  0.10E-29 period in steps =****** mass=  -0.206E-27a.u.
   SCALEE = 1.0000    scale energy and forces
   NPACO  =    256;   APACO  = 16.0  distance and # of slots for P.C.
   PSTRESS=    0.0 pullay stress

  Mass of Ions in am
   POMASS =  16.00 24.30 26.98
  Ionic Valenz
   ZVAL   =   6.00  2.00  3.00
  Atomic Wigner-Seitz radii
   RWIGS  =  -1.00 -1.00 -1.00
  virtual crystal weights 
   VCA    =   1.00  1.00  1.00
   NELECT =      99.0000    total number of electrons
   NUPDOWN=      -1.0000    fix difference up-down

 DOS related values:
   EMIN   =  10.00;   EMAX   =-10.00  energy-range for DOS
   EFERMI =   0.00
   ISMEAR =     0;   SIGMA  =   0.05  broadening in eV -4-tet -1-fermi 0-gaus

 Electronic relaxation 2 (details)
   IALGO  =     38    algorithm
   LDIAG  =      T    sub-space diagonalisation (order eigenvalues)
   LSUBROT=      F    optimize rotation matrix (better conditioning)
   TURBO    =      0    0=normal 1=particle mesh
   IRESTART =      0    0=no restart 2=restart with 2 vectors
   NREBOOT  =      0    no. of reboots
   NMIN     =      0    reboot dimension
   EREF     =   0.00    reference energy to select bands
   IMIX   =      4    mixing-type and parameters
     AMIX     =   0.40;   BMIX     =  1.00
     AMIX_MAG =   1.60;   BMIX_MAG =  1.00
     AMIN     =   0.01
     WC   =   100.;   INIMIX=   1;  MIXPRE=   1;  MAXMIX= -45

 Intra band minimization:
   WEIMIN = 0.0010     energy-eigenvalue tresh-hold
   EBREAK =  0.39E-07  absolut break condition
   DEPER  =   0.30     relativ break condition  

   TIME   =   0.40     timestep for ELM

  volume/ion in A,a.u.               =      12.15        82.02
  Fermi-wavevector in a.u.,A,eV,Ry     =   1.111869  2.101128 16.820241  1.236253
  Thomas-Fermi vector in A             =   2.248437
 
 Write flags
   LWAVE  =      F    write WAVECAR
   LCHARG =      T    write CHGCAR
   LVTOT  =      F    write LOCPOT, total local potential
   LVHAR  =      F    write LOCPOT, Hartree potential only
   LELF   =      F    write electronic localiz. function (ELF)
   LORBIT =      0    0 simple, 1 ext, 2 COOP (PROOUT)


 Dipole corrections
   LMONO  =      F    monopole corrections only (constant potential shift)
   LDIPOL =      F    correct potential (dipole corrections)
   IDIPOL =      0    1-x, 2-y, 3-z, 4-all directions 
   EPSILON=  1.0000000 bulk dielectric constant

 Exchange correlation treatment:
   GGA     =    --    GGA type
   LEXCH   =     8    internal setting for exchange type
   VOSKOWN=      0    Vosko Wilk Nusair interpolation
   LHFCALC =     F    Hartree Fock is set to
   LHFONE  =     F    Hartree Fock one center treatment
   AEXX    =    0.0000 exact exchange contribution

 Linear response parameters
   LEPSILON=     F    determine dielectric tensor
   LRPA    =     F    only Hartree local field effects (RPA)
   LNABLA  =     F    use nabla operator in PAW spheres
   LVEL    =     F    velocity operator in full k-point grid
   LINTERFAST=   F  fast interpolation
   KINTER  =     0    interpolate to denser k-point grid
   CSHIFT  =0.1000    complex shift for real part using Kramers Kronig
   OMEGAMAX=  -1.0    maximum frequency
   DEG_THRESHOLD= 0.2000000E-02 threshold for treating states as degnerate
   RTIME   =    0.100 relaxation time in fs

 Orbital magnetization related:
   ORBITALMAG=     F  switch on orbital magnetization
   LCHIMAG   =     F  perturbation theory with respect to B field
   DQ        =  0.001000  dq finite difference perturbation B field



--------------------------------------------------------------------------------------------------------


 conjugate gradient relaxation of ions
   using selective dynamics as specified on POSCAR
 charge density and potential will be updated during run
 non-spin polarized calculation
 Variant of blocked Davidson
 Davidson routine will perform the subspace rotation
 perform sub-space diagonalisation
    after iterative eigenvector-optimisation
 modified Broyden-mixing scheme, WC =      100.0
 initial mixing is a Kerker type mixing with AMIX =  0.4000 and BMIX =      1.0000
 Hartree-type preconditioning will be used
 using additional bands           14
 reciprocal scheme for non local part
 use partial core corrections
 calculate Harris-corrections to forces 
   (improved forces if not selfconsistent)
 use gradient corrections 
 use of overlap-Matrix (Vanderbilt PP)
 Gauss-broadening in eV      SIGMA  =   0.05


--------------------------------------------------------------------------------------------------------


  energy-cutoff  :      520.00
  volume of cell :      316.01
      direct lattice vectors                 reciprocal lattice vectors
     2.600457673 -1.501374484  0.000000000     0.384547693  0.000000000 -0.000000000
     0.000000000  3.002748968  0.000000000     0.192273847  0.333028172 -0.000000000
     0.000000000 -0.000000000 40.469694788     0.000000000  0.000000000  0.024709848

  length of vectors
     3.002749648  3.002748968 40.469694788     0.384547693  0.384547781  0.024709848


 
 k-points in units of 2pi/SCALE and weight: K-Spacing Value to Generate K-Mesh: 0.02
   0.00000000  0.00000000  0.00000000       0.006
   0.02958059  0.00000000 -0.00000000       0.036
   0.05916118  0.00000000 -0.00000000       0.036
   0.08874178  0.00000000 -0.00000000       0.036
   0.11832237  0.00000000 -0.00000000       0.036
   0.14790296  0.00000000 -0.00000000       0.036
   0.17748355  0.00000000 -0.00000000       0.036
   0.04437089  0.02561755 -0.00000000       0.036
   0.07395148  0.02561755 -0.00000000       0.071
   0.10353207  0.02561755 -0.00000000       0.071
   0.13311266  0.02561755 -0.00000000       0.071
   0.16269325  0.02561755 -0.00000000       0.071
   0.19227385  0.02561755 -0.00000000       0.036
   0.08874178  0.05123510 -0.00000000       0.036
   0.11832237  0.05123510 -0.00000000       0.071
   0.14790296  0.05123510 -0.00000000       0.071
   0.17748355  0.05123510 -0.00000000       0.071
   0.13311266  0.07685266 -0.00000000       0.036
   0.16269325  0.07685266 -0.00000000       0.071
   0.19227385  0.07685266 -0.00000000       0.036
   0.17748355  0.10247021 -0.00000000       0.036
 
 k-points in reciprocal lattice and weights: K-Spacing Value to Generate K-Mesh: 0.02
   0.00000000  0.00000000  0.00000000       0.006
   0.07692308  0.00000000  0.00000000       0.036
   0.15384615  0.00000000 -0.00000000       0.036
   0.23076923  0.00000000  0.00000000       0.036
   0.30769231  0.00000000 -0.00000000       0.036
   0.38461538  0.00000000 -0.00000000       0.036
   0.46153846  0.00000000  0.00000000       0.036
   0.07692308  0.07692308  0.00000000       0.036
   0.15384615  0.07692308  0.00000000       0.071
   0.23076923  0.07692308 -0.00000000       0.071
   0.30769231  0.07692308 -0.00000000       0.071
   0.38461538  0.07692308 -0.00000000       0.071
   0.46153846  0.07692308 -0.00000000       0.036
   0.15384615  0.15384615 -0.00000000       0.036
   0.23076923  0.15384615  0.00000000       0.071
   0.30769231  0.15384615 -0.00000000       0.071
   0.38461538  0.15384615 -0.00000000       0.071
   0.23076923  0.23076923 -0.00000000       0.036
   0.30769231  0.23076923 -0.00000000       0.071
   0.38461538  0.23076923 -0.00000000       0.036
   0.30769231  0.30769231 -0.00000000       0.036
 
 position of ions in fractional coordinates (direct lattice) 
   0.00000000  0.00000000  0.24732791
   0.33333300  0.66666700  0.30738947
   0.00000000  0.00000000  0.43233066
   0.33333300  0.66666700  0.49476980
   0.00000000  0.00000000  0.61974151
   0.33333300  0.66666700  0.68220444
   0.00000000  0.00000000  0.80473798
   0.66666700  0.33333300  0.36987280
   0.66666700  0.33333300  0.55730142
   0.66666700  0.33333300  0.74469494
   0.00000000  0.00000000  0.33860202
   0.00000000  0.00000000  0.52604056
   0.00000000  0.00000000  0.71346395
   0.66666700  0.33333300  0.27603397
   0.66666700  0.33333300  0.46354336
   0.66666700  0.33333300  0.65099148
   0.33333300  0.66666700  0.40108587
   0.33333300  0.66666700  0.58853463
   0.33333300  0.66666700  0.77603147
   0.00000000  0.00000000  0.02603829
   0.00000000  0.00000000  0.20406695
   0.66666700  0.33333300  0.14560362
   0.33333300  0.66666700  0.08532045
   0.00000000  0.00000000  0.84801300
   0.66666700  0.33333300  0.96675589
   0.33333300  0.66666700  0.90647055
 
 position of ions in cartesian coordinates  (Angst):
   0.00000000 -0.00000000 10.00928512
   0.86681836  1.50137599 12.43995796
   0.00000000 -0.00000000 17.49628997
   0.86681836  1.50137599 20.02318293
   0.00000000 -0.00000000 25.08074961
   0.86681836  1.50137599 27.60860559
   0.00000000 -0.00000000 32.56750025
   1.73363932 -0.00000150 14.96863936
   1.73363932 -0.00000150 22.55381851
   1.73363932 -0.00000150 30.13757696
   0.00000000 -0.00000000 13.70312061
   0.00000000 -0.00000000 21.28870089
   0.00000000 -0.00000000 28.87366845
   1.73363932 -0.00000150 11.17101056
   1.73363932 -0.00000150 18.75945832
   1.73363932 -0.00000150 26.34542639
   0.86681836  1.50137599 16.23182275
   0.86681836  1.50137599 23.81781700
   0.86681836  1.50137599 31.40575681
   0.00000000 -0.00000000  1.05376176
   0.00000000 -0.00000000  8.25852702
   1.73363932 -0.00000150  5.89253391
   0.86681836  1.50137599  3.45289250
   0.00000000 -0.00000000 34.31882728
   1.73363932 -0.00000150 39.12431587
   0.86681836  1.50137599 36.68458635
 


--------------------------------------------------------------------------------------------------------


 k-point  1 :   0.0000 0.0000 0.0000  plane waves:    8635
 k-point  2 :   0.0769 0.0000 0.0000  plane waves:    8615
 k-point  3 :   0.1538 0.0000-0.0000  plane waves:    8597
 k-point  4 :   0.2308 0.0000 0.0000  plane waves:    8562
 k-point  5 :   0.3077 0.0000-0.0000  plane waves:    8510
 k-point  6 :   0.3846 0.0000-0.0000  plane waves:    8464
 k-point  7 :   0.4615 0.0000 0.0000  plane waves:    8468
 k-point  8 :   0.0769 0.0769 0.0000  plane waves:    8591
 k-point  9 :   0.1538 0.0769 0.0000  plane waves:    8564
 k-point 10 :   0.2308 0.0769-0.0000  plane waves:    8523
 k-point 11 :   0.3077 0.0769-0.0000  plane waves:    8498
 k-point 12 :   0.3846 0.0769-0.0000  plane waves:    8479
 k-point 13 :   0.4615 0.0769-0.0000  plane waves:    8444
 k-point 14 :   0.1538 0.1538-0.0000  plane waves:    8539
 k-point 15 :   0.2308 0.1538 0.0000  plane waves:    8518
 k-point 16 :   0.3077 0.1538-0.0000  plane waves:    8486
 k-point 17 :   0.3846 0.1538-0.0000  plane waves:    8454
 k-point 18 :   0.2308 0.2308-0.0000  plane waves:    8502
 k-point 19 :   0.3077 0.2308-0.0000  plane waves:    8487
 k-point 20 :   0.3846 0.2308-0.0000  plane waves:    8464
 k-point 21 :   0.3077 0.3077-0.0000  plane waves:    8488

 maximum and minimum number of plane-waves per node :      2179     2087

 maximum number of plane-waves:      8635
 maximum index in each direction: 
   IXMAX=    5   IYMAX=    5   IZMAX=   75
   IXMIN=   -6   IYMIN=   -5   IZMIN=  -75

 NGX is ok and might be reduce to  24
 NGY is ok and might be reduce to  22
 NGZ is ok and might be reduce to 302

 parallel 3D FFT for wavefunctions:
    minimum data exchange during FFTs selected (reduces bandwidth)
 parallel 3D FFT for charge:
    minimum data exchange during FFTs selected (reduces bandwidth)


 total amount of memory used by VASP on root node   146326. kBytes
========================================================================

   base      :      30000. kBytes
   nonl-proj :      15050. kBytes
   fftplans  :      55169. kBytes
   grid      :      22118. kBytes
   one-center:         56. kBytes
   wavefun   :      23933. kBytes
 
     INWAV:  cpu time    0.00: real time    0.00
 Broyden mixing: mesh for mixing (old mesh)
   NGX = 11   NGY = 11   NGZ =151
  (NGX  = 48   NGY  = 48   NGZ  =640)
  gives a total of  18271 points

 initial charge density was supplied:
 charge density of overlapping atoms calculated
 number of electron      99.0000000 magnetization 
 keeping initial charge density in first step


--------------------------------------------------------------------------------------------------------


 Maximum index for augmentation-charges        23926 (set IRDMAX)


--------------------------------------------------------------------------------------------------------


 First call to EWALD:  gamma=   0.260
 Maximum number of real-space cells 6x 6x 1
 Maximum number of reciprocal cells 1x 1x14

 FEWALD executed in parallel
    FEWALD:  cpu time    0.00: real time    0.00


----------------------------------------- Iteration    1(   1)  ---------------------------------------


    POTLOK:  cpu time    0.11: real time    0.11
    SETDIJ:  cpu time    0.11: real time    0.11
     EDDAV:  cpu time    4.19: real time    4.22
       DOS:  cpu time    0.00: real time    0.00
    --------------------------------------------
      LOOP:  cpu time    4.41: real time    4.44

 eigenvalue-minimisations  :  2696
 total energy-change (2. order) : 0.5026005E+03  (-0.4467111E+04)
 number of electron      99.0000000 magnetization 
 augmentation part       99.0000000 magnetization 

 Free energy of the ion-electron system (eV)
  ---------------------------------------------------
  alpha Z        PSCENC =       133.54592004
  Ewald energy   TEWEN  =      9321.68809959
  -Hartree energ DENC   =    -14495.11228455
  -exchange      EXHF   =         0.00000000
  -V(xc)+E(xc)   XCENC  =      -342.79446805
  PAW double counting   =      4516.65612620    -3844.19644948
  entropy T*S    EENTRO =        -0.00293799
  eigenvalues    EBANDS =       307.13564880
  atomic energy  EATOM  =      4905.68083858
  ---------------------------------------------------
  free energy    TOTEN  =       502.60049314 eV

  energy without entropy =      502.60343113  energy(sigma->0) =      502.60196213


--------------------------------------------------------------------------------------------------------




----------------------------------------- Iteration    1(   2)  ---------------------------------------


     EDDAV:  cpu time    5.01: real time    5.02
       DOS:  cpu time    0.00: real time    0.00
    --------------------------------------------
      LOOP:  cpu time    5.01: real time    5.02

 eigenvalue-minimisations  :  3480
 total energy-change (2. order) :-0.6070767E+03  (-0.5783951E+03)
 number of electron      99.0000000 magnetization 
 augmentation part       99.0000000 magnetization 

 Free energy of the ion-electron system (eV)
  ---------------------------------------------------
  alpha Z        PSCENC =       133.54592004
  Ewald energy   TEWEN  =      9321.68809959
  -Hartree energ DENC   =    -14495.11228455
  -exchange      EXHF   =         0.00000000
  -V(xc)+E(xc)   XCENC  =      -342.79446805
  PAW double counting   =      4516.65612620    -3844.19644948
  entropy T*S    EENTRO =        -0.00595158
  eigenvalues    EBANDS =      -299.93801140
  atomic energy  EATOM  =      4905.68083858
  ---------------------------------------------------
  free energy    TOTEN  =      -104.47618065 eV

  energy without entropy =     -104.47022907  energy(sigma->0) =     -104.47320486


--------------------------------------------------------------------------------------------------------




----------------------------------------- Iteration    1(   3)  ---------------------------------------


     EDDAV:  cpu time    4.60: real time    4.61
       DOS:  cpu time    0.00: real time    0.00
    --------------------------------------------
      LOOP:  cpu time    4.61: real time    4.61

 eigenvalue-minimisations  :  3160
 total energy-change (2. order) :-0.5329828E+02  (-0.5304272E+02)
 number of electron      99.0000000 magnetization 
 augmentation part       99.0000000 magnetization 

 Free energy of the ion-electron system (eV)
  ---------------------------------------------------
  alpha Z        PSCENC =       133.54592004
  Ewald energy   TEWEN  =      9321.68809959
  -Hartree energ DENC   =    -14495.11228455
  -exchange      EXHF   =         0.00000000
  -V(xc)+E(xc)   XCENC  =      -342.79446805
  PAW double counting   =      4516.65612620    -3844.19644948
  entropy T*S    EENTRO =        -0.00688527
  eigenvalues    EBANDS =      -353.23535784
  atomic energy  EATOM  =      4905.68083858
  ---------------------------------------------------
  free energy    TOTEN  =      -157.77446078 eV

  energy without entropy =     -157.76757551  energy(sigma->0) =     -157.77101815


--------------------------------------------------------------------------------------------------------




----------------------------------------- Iteration    1(   4)  ---------------------------------------


     EDDAV:  cpu time    4.58: real time    4.58
       DOS:  cpu time    0.00: real time    0.00
    --------------------------------------------
      LOOP:  cpu time    4.58: real time    4.59

 eigenvalue-minimisations  :  3136
 total energy-change (2. order) :-0.6386094E+00  (-0.6376962E+00)
 number of electron      99.0000000 magnetization 
 augmentation part       99.0000000 magnetization 

 Free energy of the ion-electron system (eV)
  ---------------------------------------------------
  alpha Z        PSCENC =       133.54592004
  Ewald energy   TEWEN  =      9321.68809959
  -Hartree energ DENC   =    -14495.11228455
  -exchange      EXHF   =         0.00000000
  -V(xc)+E(xc)   XCENC  =      -342.79446805
  PAW double counting   =      4516.65612620    -3844.19644948
  entropy T*S    EENTRO =        -0.00708087
  eigenvalues    EBANDS =      -353.87377164
  atomic energy  EATOM  =      4905.68083858
  ---------------------------------------------------
  free energy    TOTEN  =      -158.41307018 eV

  energy without entropy =     -158.40598931  energy(sigma->0) =     -158.40952975


--------------------------------------------------------------------------------------------------------




----------------------------------------- Iteration    1(   5)  ---------------------------------------


     EDDAV:  cpu time    4.67: real time    4.68
       DOS:  cpu time    0.00: real time    0.00
    CHARGE:  cpu time    0.38: real time    0.38
    MIXING:  cpu time    0.00: real time    0.00
    --------------------------------------------
      LOOP:  cpu time    5.06: real time    5.07

 eigenvalue-minimisations  :  3232
 total energy-change (2. order) :-0.9383087E-02  (-0.9380389E-02)
 number of electron      99.0000001 magnetization 
 augmentation part        7.7965405 magnetization 

 Broyden mixing:
  rms(total) = 0.23632E+01    rms(broyden)= 0.23627E+01
  rms(prec ) = 0.24295E+01
  weight for this iteration     100.00

 Free energy of the ion-electron system (eV)
  ---------------------------------------------------
  alpha Z        PSCENC =       133.54592004
  Ewald energy   TEWEN  =      9321.68809959
  -Hartree energ DENC   =    -14495.11228455
  -exchange      EXHF   =         0.00000000
  -V(xc)+E(xc)   XCENC  =      -342.79446805
  PAW double counting   =      4516.65612620    -3844.19644948
  entropy T*S    EENTRO =        -0.00709484
  eigenvalues    EBANDS =      -353.88314076
  atomic energy  EATOM  =      4905.68083858
  ---------------------------------------------------
  free energy    TOTEN  =      -158.42245327 eV

  energy without entropy =     -158.41535843  energy(sigma->0) =     -158.41890585


--------------------------------------------------------------------------------------------------------




----------------------------------------- Iteration    1(   6)  ---------------------------------------


    POTLOK:  cpu time    0.10: real time    0.10
    SETDIJ:  cpu time    0.11: real time    0.11
     EDDAV:  cpu time    4.68: real time    4.69
       DOS:  cpu time    0.00: real time    0.00
    CHARGE:  cpu time    0.38: real time    0.38
    MIXING:  cpu time    0.00: real time    0.00
    --------------------------------------------
      LOOP:  cpu time    5.28: real time    5.29

 eigenvalue-minimisations  :  3200
 total energy-change (2. order) : 0.1681790E+02  (-0.9290761E+01)
 number of electron      99.0000002 magnetization 
 augmentation part        6.2779235 magnetization 

 Broyden mixing:
  rms(total) = 0.79164E+00    rms(broyden)= 0.79067E+00
  rms(prec ) = 0.79991E+00
  weight for this iteration     100.00

 eigenvalues of (default mixing * dielectric matrix)
  average eigenvalue GAMMA=   0.8448
  0.8448

 Free energy of the ion-electron system (eV)
  ---------------------------------------------------
  alpha Z        PSCENC =       133.54592004
  Ewald energy   TEWEN  =      9321.68809959
  -Hartree energ DENC   =    -14696.79245154
  -exchange      EXHF   =         0.00000000
  -V(xc)+E(xc)   XCENC  =      -329.17696899
  PAW double counting   =      5396.45759317    -4727.53027088
  entropy T*S    EENTRO =        -0.00338278
  eigenvalues    EBANDS =      -145.47392889
  atomic energy  EATOM  =      4905.68083858
  ---------------------------------------------------
  free energy    TOTEN  =      -141.60455171 eV

  energy without entropy =     -141.60116892  energy(sigma->0) =     -141.60286032


--------------------------------------------------------------------------------------------------------




----------------------------------------- Iteration    1(   7)  ---------------------------------------


    POTLOK:  cpu time    0.10: real time    0.10
    SETDIJ:  cpu time    0.11: real time    0.11
     EDDAV:  cpu time    4.45: real time    4.46
       DOS:  cpu time    0.00: real time    0.00
    CHARGE:  cpu time    0.40: real time    0.40
    MIXING:  cpu time    0.01: real time    0.01
    --------------------------------------------
      LOOP:  cpu time    5.06: real time    5.07

 eigenvalue-minimisations  :  3000
 total energy-change (2. order) : 0.7655440E-02  (-0.3010108E+00)
 number of electron      99.0000002 magnetization 
 augmentation part        6.2972849 magnetization 

 Broyden mixing:
  rms(total) = 0.49378E+00    rms(broyden)= 0.49376E+00
  rms(prec ) = 0.50210E+00
  weight for this iteration     100.00

 eigenvalues of (default mixing * dielectric matrix)
  average eigenvalue GAMMA=   1.4598
  1.0211  1.8985

 Free energy of the ion-electron system (eV)
  ---------------------------------------------------
  alpha Z        PSCENC =       133.54592004
  Ewald energy   TEWEN  =      9321.68809959
  -Hartree energ DENC   =    -14697.83007433
  -exchange      EXHF   =         0.00000000
  -V(xc)+E(xc)   XCENC  =      -328.83017125
  PAW double counting   =      5733.32347471    -5063.92863207
  entropy T*S    EENTRO =        -0.00338369
  eigenvalues    EBANDS =      -145.24296785
  atomic energy  EATOM  =      4905.68083858
  ---------------------------------------------------
  free energy    TOTEN  =      -141.59689627 eV

  energy without entropy =     -141.59351258  energy(sigma->0) =     -141.59520442


--------------------------------------------------------------------------------------------------------




----------------------------------------- Iteration    1(   8)  ---------------------------------------


    POTLOK:  cpu time    0.11: real time    0.11
    SETDIJ:  cpu time    0.11: real time    0.11
     EDDAV:  cpu time    4.54: real time    4.55
       DOS:  cpu time    0.00: real time    0.00
    CHARGE:  cpu time    0.37: real time    0.37
    MIXING:  cpu time    0.00: real time    0.00
    --------------------------------------------
      LOOP:  cpu time    5.14: real time    5.15

 eigenvalue-minimisations  :  3120
 total energy-change (2. order) : 0.1498089E+00  (-0.6942248E-01)
 number of electron      99.0000002 magnetization 
 augmentation part        6.3654094 magnetization 

 Broyden mixing:
  rms(total) = 0.12467E+00    rms(broyden)= 0.12461E+00
  rms(prec ) = 0.13385E+00
  weight for this iteration     100.00

 eigenvalues of (default mixing * dielectric matrix)
  average eigenvalue GAMMA=   1.3695
  2.3995  0.9011  0.8078

 Free energy of the ion-electron system (eV)
  ---------------------------------------------------
  alpha Z        PSCENC =       133.54592004
  Ewald energy   TEWEN  =      9321.68809959
  -Hartree energ DENC   =    -14705.06144564
  -exchange      EXHF   =         0.00000000
  -V(xc)+E(xc)   XCENC  =      -327.85179451
  PAW double counting   =      6187.28867488    -5517.54010288
  entropy T*S    EENTRO =        -0.00290905
  eigenvalues    EBANDS =      -139.19436836
  atomic energy  EATOM  =      4905.68083858
  ---------------------------------------------------
  free energy    TOTEN  =      -141.44708735 eV

  energy without entropy =     -141.44417829  energy(sigma->0) =     -141.44563282


--------------------------------------------------------------------------------------------------------




----------------------------------------- Iteration    1(   9)  ---------------------------------------


    POTLOK:  cpu time    0.10: real time    0.10
    SETDIJ:  cpu time    0.10: real time    0.10
     EDDAV:  cpu time    4.63: real time    4.63
       DOS:  cpu time    0.00: real time    0.00
    CHARGE:  cpu time    0.37: real time    0.37
    MIXING:  cpu time    0.00: real time    0.00
    --------------------------------------------
      LOOP:  cpu time    5.20: real time    5.21

 eigenvalue-minimisations  :  3104
 total energy-change (2. order) : 0.3556752E-01  (-0.1462073E-01)
 number of electron      99.0000002 magnetization 
 augmentation part        6.3322043 magnetization 

 Broyden mixing:
  rms(total) = 0.63161E-01    rms(broyden)= 0.63154E-01
  rms(prec ) = 0.72573E-01
  weight for this iteration     100.00

 eigenvalues of (default mixing * dielectric matrix)
  average eigenvalue GAMMA=   1.3168
  2.4085  0.9249  0.9249  1.0087

 Free energy of the ion-electron system (eV)
  ---------------------------------------------------
  alpha Z        PSCENC =       133.54592004
  Ewald energy   TEWEN  =      9321.68809959
  -Hartree energ DENC   =    -14713.61793854
  -exchange      EXHF   =         0.00000000
  -V(xc)+E(xc)   XCENC  =      -327.18456865
  PAW double counting   =      6297.79394345    -5628.07764747
  entropy T*S    EENTRO =        -0.00320619
  eigenvalues    EBANDS =      -131.23696062
  atomic energy  EATOM  =      4905.68083858
  ---------------------------------------------------
  free energy    TOTEN  =      -141.41151982 eV

  energy without entropy =     -141.40831363  energy(sigma->0) =     -141.40991673


--------------------------------------------------------------------------------------------------------




----------------------------------------- Iteration    1(  10)  ---------------------------------------


    POTLOK:  cpu time    0.10: real time    0.10
    SETDIJ:  cpu time    0.10: real time    0.10
     EDDAV:  cpu time    4.50: real time    4.51
       DOS:  cpu time    0.00: real time    0.00
    CHARGE:  cpu time    0.38: real time    0.38
    MIXING:  cpu time    0.00: real time    0.00
    --------------------------------------------
      LOOP:  cpu time    5.09: real time    5.10

 eigenvalue-minimisations  :  3032
 total energy-change (2. order) : 0.5734220E-02  (-0.7313560E-02)
 number of electron      99.0000002 magnetization 
 augmentation part        6.3151079 magnetization 

 Broyden mixing:
  rms(total) = 0.27665E-01    rms(broyden)= 0.27634E-01
  rms(prec ) = 0.39467E-01
  weight for this iteration     100.00

 eigenvalues of (default mixing * dielectric matrix)
  average eigenvalue GAMMA=   1.3489
  2.5413  1.6442  0.9732  0.7929  0.7929

 Free energy of the ion-electron system (eV)
  ---------------------------------------------------
  alpha Z        PSCENC =       133.54592004
  Ewald energy   TEWEN  =      9321.68809959
  -Hartree energ DENC   =    -14716.16815335
  -exchange      EXHF   =         0.00000000
  -V(xc)+E(xc)   XCENC  =      -327.06177302
  PAW double counting   =      6284.31224524    -5614.61738104
  entropy T*S    EENTRO =        -0.00317309
  eigenvalues    EBANDS =      -128.78240856
  atomic energy  EATOM  =      4905.68083858
  ---------------------------------------------------
  free energy    TOTEN  =      -141.40578560 eV

  energy without entropy =     -141.40261252  energy(sigma->0) =     -141.40419906


--------------------------------------------------------------------------------------------------------




----------------------------------------- Iteration    1(  11)  ---------------------------------------


    POTLOK:  cpu time    0.10: real time    0.10
    SETDIJ:  cpu time    0.11: real time    0.11
     EDDAV:  cpu time    4.73: real time    4.74
       DOS:  cpu time    0.00: real time    0.00
    CHARGE:  cpu time    0.38: real time    0.38
    MIXING:  cpu time    0.01: real time    0.01
    --------------------------------------------
      LOOP:  cpu time    5.33: real time    5.34

 eigenvalue-minimisations  :  3272
 total energy-change (2. order) : 0.6368725E-02  (-0.7215518E-03)
 number of electron      99.0000002 magnetization 
 augmentation part        6.3109328 magnetization 

 Broyden mixing:
  rms(total) = 0.20441E-01    rms(broyden)= 0.20438E-01
  rms(prec ) = 0.35096E-01
  weight for this iteration     100.00

 eigenvalues of (default mixing * dielectric matrix)
  average eigenvalue GAMMA=   1.4016
  2.5685  2.2757  0.9426  0.9426  0.8400  0.8400

 Free energy of the ion-electron system (eV)
  ---------------------------------------------------
  alpha Z        PSCENC =       133.54592004
  Ewald energy   TEWEN  =      9321.68809959
  -Hartree energ DENC   =    -14718.62146570
  -exchange      EXHF   =         0.00000000
  -V(xc)+E(xc)   XCENC  =      -326.95962534
  PAW double counting   =      6261.50399265    -5591.82334657
  entropy T*S    EENTRO =        -0.00328309
  eigenvalues    EBANDS =      -126.41054704
  atomic energy  EATOM  =      4905.68083858
  ---------------------------------------------------
  free energy    TOTEN  =      -141.39941688 eV

  energy without entropy =     -141.39613379  energy(sigma->0) =     -141.39777534


--------------------------------------------------------------------------------------------------------




----------------------------------------- Iteration    1(  12)  ---------------------------------------


    POTLOK:  cpu time    0.11: real time    0.11
    SETDIJ:  cpu time    0.11: real time    0.11
     EDDAV:  cpu time    4.95: real time    4.96
       DOS:  cpu time    0.00: real time    0.00
    CHARGE:  cpu time    0.38: real time    0.38
    MIXING:  cpu time    0.00: real time    0.00
    --------------------------------------------
      LOOP:  cpu time    5.56: real time    5.57

 eigenvalue-minimisations  :  3472
 total energy-change (2. order) : 0.3987670E-02  (-0.4572157E-03)
 number of electron      99.0000002 magnetization 
 augmentation part        6.3099714 magnetization 

 Broyden mixing:
  rms(total) = 0.14766E-01    rms(broyden)= 0.14765E-01
  rms(prec ) = 0.29276E-01
  weight for this iteration     100.00

 eigenvalues of (default mixing * dielectric matrix)
  average eigenvalue GAMMA=   1.3688
  2.7548  2.5544  0.9734  0.9734  0.8812  0.8812  0.5630

 Free energy of the ion-electron system (eV)
  ---------------------------------------------------
  alpha Z        PSCENC =       133.54592004
  Ewald energy   TEWEN  =      9321.68809959
  -Hartree energ DENC   =    -14719.58308251
  -exchange      EXHF   =         0.00000000
  -V(xc)+E(xc)   XCENC  =      -326.95213640
  PAW double counting   =      6250.12224734    -5580.44305891
  entropy T*S    EENTRO =        -0.00324499
  eigenvalues    EBANDS =      -125.45101195
  atomic energy  EATOM  =      4905.68083858
  ---------------------------------------------------
  free energy    TOTEN  =      -141.39542921 eV

  energy without entropy =     -141.39218422  energy(sigma->0) =     -141.39380671


--------------------------------------------------------------------------------------------------------




----------------------------------------- Iteration    1(  13)  ---------------------------------------


    POTLOK:  cpu time    0.10: real time    0.10
    SETDIJ:  cpu time    0.11: real time    0.11
     EDDAV:  cpu time    5.94: real time    5.95
       DOS:  cpu time    0.00: real time    0.00
    CHARGE:  cpu time    0.38: real time    0.38
    MIXING:  cpu time    0.00: real time    0.00
    --------------------------------------------
      LOOP:  cpu time    6.54: real time    6.55

 eigenvalue-minimisations  :  4288
 total energy-change (2. order) : 0.8603277E-02  (-0.5157048E-03)
 number of electron      99.0000002 magnetization 
 augmentation part        6.3125255 magnetization 

 Broyden mixing:
  rms(total) = 0.84723E-02    rms(broyden)= 0.84702E-02
  rms(prec ) = 0.23542E-01
  weight for this iteration     100.00

 eigenvalues of (default mixing * dielectric matrix)
  average eigenvalue GAMMA=   1.3660
  2.8323  2.4921  1.2368  0.8433  0.8433  0.9654  0.9654  0.7493

 Free energy of the ion-electron system (eV)
  ---------------------------------------------------
  alpha Z        PSCENC =       133.54592004
  Ewald energy   TEWEN  =      9321.68809959
  -Hartree energ DENC   =    -14721.47423242
  -exchange      EXHF   =         0.00000000
  -V(xc)+E(xc)   XCENC  =      -326.99334851
  PAW double counting   =      6224.52531285    -5554.83852417
  entropy T*S    EENTRO =        -0.00329391
  eigenvalues    EBANDS =      -123.51759798
  atomic energy  EATOM  =      4905.68083858
  ---------------------------------------------------
  free energy    TOTEN  =      -141.38682593 eV

  energy without entropy =     -141.38353202  energy(sigma->0) =     -141.38517897


--------------------------------------------------------------------------------------------------------




----------------------------------------- Iteration    1(  14)  ---------------------------------------


    POTLOK:  cpu time    0.11: real time    0.11
    SETDIJ:  cpu time    0.10: real time    0.10
     EDDAV:  cpu time    5.02: real time    5.03
       DOS:  cpu time    0.00: real time    0.00
    CHARGE:  cpu time    0.37: real time    0.37
    MIXING:  cpu time    0.00: real time    0.00
    --------------------------------------------
      LOOP:  cpu time    5.61: real time    5.62

 eigenvalue-minimisations  :  3520
 total energy-change (2. order) : 0.5015733E-02  (-0.8183003E-03)
 number of electron      99.0000002 magnetization 
 augmentation part        6.3157468 magnetization 

 Broyden mixing:
  rms(total) = 0.11231E-01    rms(broyden)= 0.11228E-01
  rms(prec ) = 0.22167E-01
  weight for this iteration     100.00

 eigenvalues of (default mixing * dielectric matrix)
  average eigenvalue GAMMA=   1.3932
  3.0805  2.4946  1.2971  1.2971  1.1371  0.8698  0.8698  0.8147  0.6779

 Free energy of the ion-electron system (eV)
  ---------------------------------------------------
  alpha Z        PSCENC =       133.54592004
  Ewald energy   TEWEN  =      9321.68809959
  -Hartree energ DENC   =    -14723.23380258
  -exchange      EXHF   =         0.00000000
  -V(xc)+E(xc)   XCENC  =      -327.01931428
  PAW double counting   =      6224.68981121    -5554.99430606
  entropy T*S    EENTRO =        -0.00331657
  eigenvalues    EBANDS =      -121.73574014
  atomic energy  EATOM  =      4905.68083858
  ---------------------------------------------------
  free energy    TOTEN  =      -141.38181020 eV

  energy without entropy =     -141.37849363  energy(sigma->0) =     -141.38015192


--------------------------------------------------------------------------------------------------------




----------------------------------------- Iteration    1(  15)  ---------------------------------------


    POTLOK:  cpu time    0.10: real time    0.10
    SETDIJ:  cpu time    0.11: real time    0.11
     EDDAV:  cpu time    5.88: real time    5.89
       DOS:  cpu time    0.00: real time    0.00
    CHARGE:  cpu time    0.38: real time    0.38
    MIXING:  cpu time    0.01: real time    0.01
    --------------------------------------------
      LOOP:  cpu time    6.48: real time    6.49

 eigenvalue-minimisations  :  4288
 total energy-change (2. order) : 0.1005944E-01  (-0.1205371E-02)
 number of electron      99.0000002 magnetization 
 augmentation part        6.3099785 magnetization 

 Broyden mixing:
  rms(total) = 0.10464E-01    rms(broyden)= 0.10461E-01
  rms(prec ) = 0.15181E-01
  weight for this iteration     100.00

 eigenvalues of (default mixing * dielectric matrix)
  average eigenvalue GAMMA=   1.5623
  4.1904  2.8002  2.3143  1.0588  1.0588  0.8275  0.8275  0.9259  0.9259  0.6939

 Free energy of the ion-electron system (eV)
  ---------------------------------------------------
  alpha Z        PSCENC =       133.54592004
  Ewald energy   TEWEN  =      9321.68809959
  -Hartree energ DENC   =    -14729.27989919
  -exchange      EXHF   =         0.00000000
  -V(xc)+E(xc)   XCENC  =      -327.00566414
  PAW double counting   =      6226.45929583    -5556.76980657
  entropy T*S    EENTRO =        -0.00337247
  eigenvalues    EBANDS =      -115.68716244
  atomic energy  EATOM  =      4905.68083858
  ---------------------------------------------------
  free energy    TOTEN  =      -141.37175076 eV

  energy without entropy =     -141.36837829  energy(sigma->0) =     -141.37006453


--------------------------------------------------------------------------------------------------------




----------------------------------------- Iteration    1(  16)  ---------------------------------------


    POTLOK:  cpu time    0.10: real time    0.10
    SETDIJ:  cpu time    0.11: real time    0.11
     EDDAV:  cpu time    4.48: real time    4.48
       DOS:  cpu time    0.00: real time    0.00
    CHARGE:  cpu time    0.37: real time    0.37
    MIXING:  cpu time    0.01: real time    0.01
    --------------------------------------------
      LOOP:  cpu time    5.07: real time    5.08

 eigenvalue-minimisations  :  3056
 total energy-change (2. order) : 0.1388627E-02  (-0.1128635E-02)
 number of electron      99.0000002 magnetization 
 augmentation part        6.3099103 magnetization 

 Broyden mixing:
  rms(total) = 0.88069E-02    rms(broyden)= 0.88052E-02
  rms(prec ) = 0.12154E-01
  weight for this iteration     100.00

 eigenvalues of (default mixing * dielectric matrix)
  average eigenvalue GAMMA=   1.4394
  4.2258  2.8073  2.3247  1.0639  1.0639  0.8280  0.8280  0.9319  0.9319  0.6916
  0.1367

 Free energy of the ion-electron system (eV)
  ---------------------------------------------------
  alpha Z        PSCENC =       133.54592004
  Ewald energy   TEWEN  =      9321.68809959
  -Hartree energ DENC   =    -14730.70943837
  -exchange      EXHF   =         0.00000000
  -V(xc)+E(xc)   XCENC  =      -327.03669386
  PAW double counting   =      6228.40719857    -5558.71208534
  entropy T*S    EENTRO =        -0.00338691
  eigenvalues    EBANDS =      -114.23081443
  atomic energy  EATOM  =      4905.68083858
  ---------------------------------------------------
  free energy    TOTEN  =      -141.37036213 eV

  energy without entropy =     -141.36697522  energy(sigma->0) =     -141.36866868


--------------------------------------------------------------------------------------------------------




----------------------------------------- Iteration    1(  17)  ---------------------------------------


    POTLOK:  cpu time    0.10: real time    0.10
    SETDIJ:  cpu time    0.10: real time    0.10
     EDDAV:  cpu time    4.56: real time    4.57
       DOS:  cpu time    0.00: real time    0.00
    CHARGE:  cpu time    0.37: real time    0.37
    MIXING:  cpu time    0.01: real time    0.01
    --------------------------------------------
      LOOP:  cpu time    5.14: real time    5.15

 eigenvalue-minimisations  :  3112
 total energy-change (2. order) : 0.1385868E-02  (-0.6323716E-03)
 number of electron      99.0000002 magnetization 
 augmentation part        6.3118749 magnetization 

 Broyden mixing:
  rms(total) = 0.11806E-01    rms(broyden)= 0.11802E-01
  rms(prec ) = 0.13714E-01
  weight for this iteration     100.00

 eigenvalues of (default mixing * dielectric matrix)
  average eigenvalue GAMMA=   1.7214
  5.5307  3.3084  2.3604  2.3604  0.9803  0.9803  0.8425  0.8425  0.9869  0.9869
  0.7386  0.7386

 Free energy of the ion-electron system (eV)
  ---------------------------------------------------
  alpha Z        PSCENC =       133.54592004
  Ewald energy   TEWEN  =      9321.68809959
  -Hartree energ DENC   =    -14731.20063896
  -exchange      EXHF   =         0.00000000
  -V(xc)+E(xc)   XCENC  =      -327.06559562
  PAW double counting   =      6233.71357590    -5564.00873670
  entropy T*S    EENTRO =        -0.00337637
  eigenvalues    EBANDS =      -113.71906272
  atomic energy  EATOM  =      4905.68083858
  ---------------------------------------------------
  free energy    TOTEN  =      -141.36897626 eV

  energy without entropy =     -141.36559990  energy(sigma->0) =     -141.36728808


--------------------------------------------------------------------------------------------------------




----------------------------------------- Iteration    1(  18)  ---------------------------------------


    POTLOK:  cpu time    0.10: real time    0.10
    SETDIJ:  cpu time    0.10: real time    0.10
     EDDAV:  cpu time    6.09: real time    6.10
       DOS:  cpu time    0.00: real time    0.00
    CHARGE:  cpu time    0.39: real time    0.39
    MIXING:  cpu time    0.01: real time    0.01
    --------------------------------------------
      LOOP:  cpu time    6.69: real time    6.70

 eigenvalue-minimisations  :  4408
 total energy-change (2. order) : 0.1806091E-02  (-0.2351004E-03)
 number of electron      99.0000002 magnetization 
 augmentation part        6.3113100 magnetization 

 Broyden mixing:
  rms(total) = 0.10575E-01    rms(broyden)= 0.10574E-01
  rms(prec ) = 0.11589E-01
  weight for this iteration     100.00

 eigenvalues of (default mixing * dielectric matrix)
  average eigenvalue GAMMA=   1.7187
  6.5424  3.3099  2.4387  2.4387  0.9592  0.9592  1.0058  1.0058  0.8455  0.8455
  0.7480  0.7480  0.4967

 Free energy of the ion-electron system (eV)
  ---------------------------------------------------
  alpha Z        PSCENC =       133.54592004
  Ewald energy   TEWEN  =      9321.68809959
  -Hartree energ DENC   =    -14733.00988530
  -exchange      EXHF   =         0.00000000
  -V(xc)+E(xc)   XCENC  =      -327.05574013
  PAW double counting   =      6234.57291135    -5564.87220166
  entropy T*S    EENTRO =        -0.00337996
  eigenvalues    EBANDS =      -111.91373268
  atomic energy  EATOM  =      4905.68083858
  ---------------------------------------------------
  free energy    TOTEN  =      -141.36717017 eV

  energy without entropy =     -141.36379021  energy(sigma->0) =     -141.36548019


--------------------------------------------------------------------------------------------------------




----------------------------------------- Iteration    1(  19)  ---------------------------------------


    POTLOK:  cpu time    0.11: real time    0.11
    SETDIJ:  cpu time    0.11: real time    0.11
     EDDAV:  cpu time    4.83: real time    4.84
       DOS:  cpu time    0.00: real time    0.00
    CHARGE:  cpu time    0.37: real time    0.37
    MIXING:  cpu time    0.01: real time    0.01
    --------------------------------------------
      LOOP:  cpu time    5.43: real time    5.44

 eigenvalue-minimisations  :  3352
 total energy-change (2. order) : 0.6043971E-03  (-0.2985079E-03)
 number of electron      99.0000002 magnetization 
 augmentation part        6.3100624 magnetization 

 Broyden mixing:
  rms(total) = 0.63945E-02    rms(broyden)= 0.63933E-02
  rms(prec ) = 0.70468E-02
  weight for this iteration     100.00

 eigenvalues of (default mixing * dielectric matrix)
  average eigenvalue GAMMA=   1.8360
  7.6676  3.9094  2.5104  2.5104  1.1853  1.1853  1.0159  1.0159  0.8537  0.8537
  0.7303  0.7303  0.7681  0.7681

 Free energy of the ion-electron system (eV)
  ---------------------------------------------------
  alpha Z        PSCENC =       133.54592004
  Ewald energy   TEWEN  =      9321.68809959
  -Hartree energ DENC   =    -14733.96433019
  -exchange      EXHF   =         0.00000000
  -V(xc)+E(xc)   XCENC  =      -327.04303208
  PAW double counting   =      6234.28226316    -5564.58697980
  entropy T*S    EENTRO =        -0.00338451
  eigenvalues    EBANDS =      -110.96596057
  atomic energy  EATOM  =      4905.68083858
  ---------------------------------------------------
  free energy    TOTEN  =      -141.36656578 eV

  energy without entropy =     -141.36318127  energy(sigma->0) =     -141.36487352


--------------------------------------------------------------------------------------------------------




----------------------------------------- Iteration    1(  20)  ---------------------------------------


    POTLOK:  cpu time    0.10: real time    0.10
    SETDIJ:  cpu time    0.10: real time    0.10
     EDDAV:  cpu time    5.66: real time    5.67
       DOS:  cpu time    0.00: real time    0.00
    CHARGE:  cpu time    0.38: real time    0.38
    MIXING:  cpu time    0.01: real time    0.01
    --------------------------------------------
      LOOP:  cpu time    6.25: real time    6.26

 eigenvalue-minimisations  :  4096
 total energy-change (2. order) : 0.2224426E-03  (-0.3498224E-03)
 number of electron      99.0000002 magnetization 
 augmentation part        6.3079752 magnetization 

 Broyden mixing:
  rms(total) = 0.74313E-02    rms(broyden)= 0.74277E-02
  rms(prec ) = 0.76633E-02
  weight for this iteration     100.00

 eigenvalues of (default mixing * dielectric matrix)
  average eigenvalue GAMMA=   1.9891
  9.9334  4.6005  2.7448  2.4158  0.9756  0.9756  1.1423  1.1423  0.8504  0.8504
  1.0361  0.8672  0.8672  0.7027  0.7319

 Free energy of the ion-electron system (eV)
  ---------------------------------------------------
  alpha Z        PSCENC =       133.54592004
  Ewald energy   TEWEN  =      9321.68809959
  -Hartree energ DENC   =    -14734.92192283
  -exchange      EXHF   =         0.00000000
  -V(xc)+E(xc)   XCENC  =      -327.02201940
  PAW double counting   =      6233.02967692    -5563.34200773
  entropy T*S    EENTRO =        -0.00338619
  eigenvalues    EBANDS =      -110.02154231
  atomic energy  EATOM  =      4905.68083858
  ---------------------------------------------------
  free energy    TOTEN  =      -141.36634333 eV

  energy without entropy =     -141.36295714  energy(sigma->0) =     -141.36465024


--------------------------------------------------------------------------------------------------------




----------------------------------------- Iteration    1(  21)  ---------------------------------------


    POTLOK:  cpu time    0.11: real time    0.11
    SETDIJ:  cpu time    0.11: real time    0.11
     EDDAV:  cpu time    4.32: real time    4.33
       DOS:  cpu time    0.00: real time    0.00
    CHARGE:  cpu time    0.37: real time    0.37
    MIXING:  cpu time    0.01: real time    0.01
    --------------------------------------------
      LOOP:  cpu time    4.92: real time    4.93

 eigenvalue-minimisations  :  2960
 total energy-change (2. order) :-0.1467173E-03  (-0.2611424E-03)
 number of electron      99.0000002 magnetization 
 augmentation part        6.3077918 magnetization 

 Broyden mixing:
  rms(total) = 0.88974E-02    rms(broyden)= 0.88960E-02
  rms(prec ) = 0.90870E-02
  weight for this iteration     100.00

 eigenvalues of (default mixing * dielectric matrix)
  average eigenvalue GAMMA=   1.9733
 10.8550  4.7998  2.8623  2.4534  1.0325  1.0325  1.1962  1.1962  0.8409  0.8409
  1.0297  0.8517  0.8517  0.6925  0.7309  0.3070

 Free energy of the ion-electron system (eV)
  ---------------------------------------------------
  alpha Z        PSCENC =       133.54592004
  Ewald energy   TEWEN  =      9321.68809959
  -Hartree energ DENC   =    -14735.07533921
  -exchange      EXHF   =         0.00000000
  -V(xc)+E(xc)   XCENC  =      -327.02441441
  PAW double counting   =      6231.84746366    -5562.15786526
  entropy T*S    EENTRO =        -0.00338550
  eigenvalues    EBANDS =      -109.86780754
  atomic energy  EATOM  =      4905.68083858
  ---------------------------------------------------
  free energy    TOTEN  =      -141.36649005 eV

  energy without entropy =     -141.36310455  energy(sigma->0) =     -141.36479730


--------------------------------------------------------------------------------------------------------




----------------------------------------- Iteration    1(  22)  ---------------------------------------


    POTLOK:  cpu time    0.10: real time    0.10
    SETDIJ:  cpu time    0.11: real time    0.11
     EDDAV:  cpu time    4.39: real time    4.40
       DOS:  cpu time    0.00: real time    0.00
    CHARGE:  cpu time    0.38: real time    0.38
    MIXING:  cpu time    0.01: real time    0.01
    --------------------------------------------
      LOOP:  cpu time    5.00: real time    5.01

 eigenvalue-minimisations  :  2936
 total energy-change (2. order) : 0.1432919E-03  (-0.6116667E-04)
 number of electron      99.0000002 magnetization 
 augmentation part        6.3091181 magnetization 

 Broyden mixing:
  rms(total) = 0.37965E-02    rms(broyden)= 0.37953E-02
  rms(prec ) = 0.38897E-02
  weight for this iteration     100.00

 eigenvalues of (default mixing * dielectric matrix)
  average eigenvalue GAMMA=   2.4739
 18.7053  5.7281  2.9385  2.4656  2.0051  0.9530  0.9530  1.0225  1.0225  0.8186
  0.8186  0.8597  0.8597  0.7079  0.7079  0.7455  0.7455

 Free energy of the ion-electron system (eV)
  ---------------------------------------------------
  alpha Z        PSCENC =       133.54592004
  Ewald energy   TEWEN  =      9321.68809959
  -Hartree energ DENC   =    -14734.87929957
  -exchange      EXHF   =         0.00000000
  -V(xc)+E(xc)   XCENC  =      -327.03378083
  PAW double counting   =      6229.60366063    -5559.91027778
  entropy T*S    EENTRO =        -0.00338558
  eigenvalues    EBANDS =      -110.05812186
  atomic energy  EATOM  =      4905.68083858
  ---------------------------------------------------
  free energy    TOTEN  =      -141.36634676 eV

  energy without entropy =     -141.36296118  energy(sigma->0) =     -141.36465397


--------------------------------------------------------------------------------------------------------




----------------------------------------- Iteration    1(  23)  ---------------------------------------


    POTLOK:  cpu time    0.11: real time    0.11
    SETDIJ:  cpu time    0.11: real time    0.11
     EDDAV:  cpu time    4.47: real time    4.47
       DOS:  cpu time    0.00: real time    0.00
    CHARGE:  cpu time    0.37: real time    0.37
    MIXING:  cpu time    0.01: real time    0.01
    --------------------------------------------
      LOOP:  cpu time    5.06: real time    5.07

 eigenvalue-minimisations  :  3016
 total energy-change (2. order) : 0.2898455E-04  (-0.1458961E-04)
 number of electron      99.0000002 magnetization 
 augmentation part        6.3089059 magnetization 

 Broyden mixing:
  rms(total) = 0.18693E-02    rms(broyden)= 0.18687E-02
  rms(prec ) = 0.19158E-02
  weight for this iteration     100.00

 eigenvalues of (default mixing * dielectric matrix)
  average eigenvalue GAMMA=   2.6535
 22.7394  6.1039  2.8733  2.5371  2.1987  0.9783  0.9783  1.2416  0.9980  0.9980
  0.8036  0.8036  0.8263  0.8263  0.8399  0.7159  0.7159  0.5853

 Free energy of the ion-electron system (eV)
  ---------------------------------------------------
  alpha Z        PSCENC =       133.54592004
  Ewald energy   TEWEN  =      9321.68809959
  -Hartree energ DENC   =    -14734.84383054
  -exchange      EXHF   =         0.00000000
  -V(xc)+E(xc)   XCENC  =      -327.03361149
  PAW double counting   =      6228.20756082    -5558.51393022
  entropy T*S    EENTRO =        -0.00338556
  eigenvalues    EBANDS =      -110.09397900
  atomic energy  EATOM  =      4905.68083858
  ---------------------------------------------------
  free energy    TOTEN  =      -141.36631777 eV

  energy without entropy =     -141.36293221  energy(sigma->0) =     -141.36462499


--------------------------------------------------------------------------------------------------------




----------------------------------------- Iteration    1(  24)  ---------------------------------------


    POTLOK:  cpu time    0.10: real time    0.10
    SETDIJ:  cpu time    0.10: real time    0.10
     EDDAV:  cpu time    4.28: real time    4.29
       DOS:  cpu time    0.00: real time    0.00
    --------------------------------------------
      LOOP:  cpu time    4.49: real time    4.49

 eigenvalue-minimisations  :  2872
 total energy-change (2. order) : 0.4231172E-05  (-0.7045441E-05)
 number of electron      99.0000002 magnetization 
 augmentation part        6.3089059 magnetization 

 Free energy of the ion-electron system (eV)
  ---------------------------------------------------
  alpha Z        PSCENC =       133.54592004
  Ewald energy   TEWEN  =      9321.68809959
  -Hartree energ DENC   =    -14734.86539339
  -exchange      EXHF   =         0.00000000
  -V(xc)+E(xc)   XCENC  =      -327.03652870
  PAW double counting   =      6227.72770499    -5558.03271938
  entropy T*S    EENTRO =        -0.00338477
  eigenvalues    EBANDS =      -110.07085050
  atomic energy  EATOM  =      4905.68083858
  ---------------------------------------------------
  free energy    TOTEN  =      -141.36631354 eV

  energy without entropy =     -141.36292877  energy(sigma->0) =     -141.36462116


--------------------------------------------------------------------------------------------------------




 average (electrostatic) potential at core
  the test charge radii are     0.7215  1.0714  1.0406
  (the norm of the test charge is              1.0000)
       1 -69.5596       2 -68.8374       3 -68.8171       4 -68.8119       5 -68.8251
       6 -68.8373       7 -69.5559       8 -68.8270       9 -68.8153      10 -68.8395
      11 -34.4997      12 -34.4852      13 -34.5068      14 -34.5188      15 -34.4768
      16 -34.4948      17 -34.4849      18 -34.4827      19 -34.5161      20 -75.7932
      21 -75.4094      22 -75.8401      23 -75.7485      24 -75.4097      25 -75.7485
      26 -75.8400
 
 
 
 E-fermi :   4.9946     XC(G=0): -10.3684     alpha+bet :-12.6766


 k-point     1 :       0.0000    0.0000    0.0000
  band No.  band energies     occupation 
      1     -13.4902      2.00000
      2     -13.4865      2.00000
      3     -13.0246      2.00000
      4     -12.9338      2.00000
      5     -12.7880      2.00000
      6     -12.6155      2.00000
      7     -12.4313      2.00000
      8     -12.2584      2.00000
      9     -12.1150      2.00000
     10     -12.0119      2.00000
     11      -5.1085      2.00000
     12      -4.7570      2.00000
     13      -4.2231      2.00000
     14      -3.3804      2.00000
     15      -2.3869      2.00000
     16      -1.4688      2.00000
     17      -0.7404      2.00000
     18      -0.3973      2.00000
     19      -0.2400      2.00000
     20       0.3024      2.00000
[...]
 k-point    19 :       0.3077    0.2308   -0.0000
  band No.  band energies     occupation 
      1     -12.7400      2.00000
      2     -12.7384      2.00000
      3     -11.9074      2.00000
      4     -11.8928      2.00000
      5     -11.8591      2.00000
      6     -11.8207      2.00000
      7     -11.7797      2.00000
      8     -11.7414      2.00000
      9     -11.7101      2.00000
     10     -11.6825      2.00000
     11      -0.4143      2.00000
     12      -0.3582      2.00000
     13      -0.1118      2.00000
     14       0.0197      2.00000
     15       0.0595      2.00000
     16       0.1925      2.00000
     17       0.3009      2.00000
     18       0.3779      2.00000
     19       0.4167      2.00000
     20       0.4794      2.00000
     21       0.5045      2.00000
     22       0.6577      2.00000
     23       0.8703      2.00000
     24       0.9009      2.00000
     25       1.0522      2.00000
     26       1.3586      2.00000
     27       1.5147      2.00000
     28       1.5271      2.00000
     29       1.5465      2.00000
     30       1.7100      2.00000
     31       1.7248      2.00000
     32       1.8861      2.00000
     33       1.9414      2.00000
     34       2.0626      2.00000
     35       2.1104      2.00000
     36       2.2476      2.00000
     37       2.3367      2.00000
     38       2.4933      2.00000
     39       2.6292      2.00000
     40       2.7280      2.00000
     41       2.8018      2.00000
     42       2.8879      2.00000
     43       2.9200      2.00000
     44       2.9770      2.00000
     45       3.0041      2.00000
     46       3.1006      2.00000
     47       3.3378      2.00000
     48       3.7637      2.00000
     49       4.1837      2.00000
     50       4.5494      2.00000
     51       4.8098      2.00000
     52       4.9575      1.94908
     53       5.3552      0.00000
     54       5.8408      0.00000
     55       5.9688      0.00000
     56       6.4520      0.00000
     57       7.2041      0.00000
     58       7.6074      0.00000
     59       7.6603      0.00000
     60       8.6875      0.00000
     61       8.8474      0.00000
     62       9.3527      0.00000
     63      10.2389      0.00000
     64      10.2930      0.00000

 k-point    20 :       0.3846    0.2308   -0.0000
  band No.  band energies     occupation 
      1     -12.7048      2.00000
      2     -12.7031      2.00000
      3     -11.8182      2.00000
      4     -11.8140      2.00000
      5     -11.7954      2.00000
      6     -11.7770      2.00000
      7     -11.7554      2.00000
      8     -11.7346      2.00000
      9     -11.7162      2.00000
     10     -11.6971      2.00000
     11      -0.1148      2.00000
     12      -0.1113      2.00000
     13       0.0674      2.00000
     14       0.0737      2.00000
     15       0.1355      2.00000
     16       0.3072      2.00000
     17       0.5025      2.00000
     18       0.5140      2.00000
     19       0.5618      2.00000
     20       0.6026      2.00000
     21       0.8032      2.00000
     22       0.8078      2.00000
     23       1.2522      2.00000
     24       1.2631      2.00000
     25       1.3689      2.00000
     26       1.3838      2.00000
     27       1.4985      2.00000
     28       1.5360      2.00000
     29       1.5611      2.00000
     30       1.6083      2.00000
     31       1.6476      2.00000
     32       1.6558      2.00000
     33       1.7011      2.00000
     34       1.8986      2.00000
     35       1.9675      2.00000
     36       2.1490      2.00000
     37       2.2205      2.00000
     38       2.3030      2.00000
     39       2.5323      2.00000
     40       2.5371      2.00000
     41       2.6067      2.00000
     42       2.6534      2.00000
     43       2.7802      2.00000
     44       2.8876      2.00000
     45       2.9666      2.00000
     46       2.9735      2.00000
     47       3.0317      2.00000
     48       3.1796      2.00000
     49       4.0229      2.00000
     50       4.4329      2.00000
     51       4.5622      2.00000
     52       4.7577      2.00000
     53       5.1046      0.02704
     54       5.5881      0.00000
     55       5.6961      0.00000
     56       6.5293      0.00000
     57       7.0241      0.00000
     58       7.1982      0.00000
     59       7.7055      0.00000
     60       8.5510      0.00000
     61       8.5804      0.00000
     62       9.2458      0.00000
     63      10.0001      0.00000
     64      10.2103      0.00000

 k-point    21 :       0.3077    0.3077   -0.0000
  band No.  band energies     occupation 
      1     -12.6896      2.00000
      2     -12.6879      2.00000
      3     -11.7861      2.00000
      4     -11.7838      2.00000
      5     -11.7683      2.00000
      6     -11.7560      2.00000
      7     -11.7411      2.00000
      8     -11.7273      2.00000
      9     -11.7146      2.00000
     10     -11.7000      2.00000
     11       0.0184      2.00000
     12       0.0198      2.00000
     13       0.2816      2.00000
     14       0.2843      2.00000
     15       0.4504      2.00000
     16       0.4642      2.00000
     17       0.5607      2.00000
     18       0.5896      2.00000
     19       0.6576      2.00000
     20       0.7552      2.00000
     21       0.8270      2.00000
     22       0.9510      2.00000
     23       1.0521      2.00000
     24       1.0790      2.00000
     25       1.1397      2.00000
     26       1.2252      2.00000
     27       1.2597      2.00000
     28       1.2708      2.00000
     29       1.4598      2.00000
     30       1.4725      2.00000
     31       1.5722      2.00000
     32       1.6444      2.00000
     33       1.7060      2.00000
     34       1.8185      2.00000
     35       2.1591      2.00000
     36       2.5091      2.00000
     37       2.6006      2.00000
     38       2.6921      2.00000
     39       2.7138      2.00000
     40       2.7434      2.00000
     41       2.7570      2.00000
     42       2.7902      2.00000
     43       2.7955      2.00000
     44       2.8200      2.00000
     45       2.9346      2.00000
     46       3.0118      2.00000
     47       3.1078      2.00000
     48       3.1181      2.00000
     49       3.6111      2.00000
     50       3.6372      2.00000
     51       3.9428      2.00000
     52       4.3397      2.00000
     53       4.7809      2.00000
     54       5.3944      0.00000
     55       5.7580      0.00000
     56       6.0828      0.00000
     57       6.9022      0.00000
     58       7.1217      0.00000
     59       7.2886      0.00000
     60       8.3432      0.00000
     61       8.7200      0.00000
     62       8.7774      0.00000
     63       9.9051      0.00000
     64      10.4120      0.00000


--------------------------------------------------------------------------------------------------------


 soft charge-density along one line, spin component           1
         0         1         2         3         4         5         6         7         8         9
 total charge-density along one line
 
 pseudopotential strength for first ion, spin component:           1
 12.090   0.000 -14.703   0.000  -0.000   0.000   0.023   0.000   0.000   0.000   0.000   0.000  -0.028   0.000  -0.000   0.000
-14.703   0.000  17.899   0.000   0.000   0.000  -0.029   0.000  -0.000   0.000  -0.000   0.000   0.036   0.000   0.000   0.000
 -0.000   0.000   0.000   0.000  -8.181   0.000  -0.000   0.000   0.000   0.000   9.767   0.000   0.000   0.000  -0.000   0.000
  0.023   0.000  -0.029   0.000  -0.000   0.000  -8.244   0.000   0.000   0.000   0.000   0.000   9.851   0.000  -0.000   0.000
  0.000   0.000  -0.000   0.000   0.000   0.000   0.000   0.000  -8.181   0.000  -0.000   0.000  -0.000   0.000   9.767   0.000
  0.000   0.000  -0.000   0.000   9.767   0.000   0.000   0.000  -0.000   0.000 -11.493   0.000  -0.000   0.000   0.000   0.000
 -0.028   0.000   0.036   0.000   0.000   0.000   9.851   0.000  -0.000   0.000  -0.000   0.000 -11.605   0.000   0.000   0.000
 -0.000   0.000   0.000   0.000  -0.000   0.000  -0.000   0.000   9.767   0.000   0.000   0.000   0.000   0.000 -11.493   0.000
 total augmentation occupancy for first ion, spin component:           1
  2.639   0.378   0.000  -0.077  -0.000   0.000  -0.032  -0.000
  0.378   0.077   0.000  -0.073  -0.000   0.000  -0.016  -0.000
  0.000   0.000   2.124  -0.000   0.000   0.232  -0.000   0.000
 -0.077  -0.073  -0.000   2.237   0.000  -0.000   0.314   0.000
 -0.000  -0.000   0.000   0.000   2.124   0.000   0.000   0.232
  0.000   0.000   0.232  -0.000   0.000   0.028  -0.000   0.000
 -0.032  -0.016  -0.000   0.314   0.000  -0.000   0.048   0.000
 -0.000  -0.000   0.000   0.000   0.232   0.000   0.000   0.028


------------------------ aborting loop because EDIFF is reached ----------------------------------------


    CHARGE:  cpu time    0.37: real time    0.37
    FORLOC:  cpu time    0.03: real time    0.03
    FORNL :  cpu time    2.94: real time    2.95
    STRESS:  cpu time    4.13: real time    4.14
    FORCOR:  cpu time    0.13: real time    0.13
    FORHAR:  cpu time    0.05: real time    0.05
    MIXING:  cpu time    0.00: real time    0.00
    OFIELD:  cpu time    0.00: real time    0.00

  FORCE on cell =-STRESS in cart. coord.  units (eV):
  Direction    XX          YY          ZZ          XY          YZ          ZX
  --------------------------------------------------------------------------------------
  Alpha Z   133.54592   133.54592   133.54592
  Ewald   12356.46980 12356.47013-14941.83941    -0.00003    -0.00000    -0.00015
  Hartree 14220.28435 14220.28426-13259.23141    -0.00000    -0.00000     0.00004
  E(xc)    -414.09069  -414.09070  -414.31182    -0.00000     0.00000    -0.00000
  Local  -27805.13300-27805.13247 26982.77297    -0.00019    -0.00000     0.00005
  n-local   -60.17993   -75.34468   -58.00490     3.20987    -1.44617     4.71800
  augment    60.96990    60.96964    59.11882     0.00018     0.00000     0.00000
  Kinetic  1520.90410  1501.95347  1481.09676    -1.89371    -0.65902     1.10231
  Fock        0.00000     0.00000     0.00000     0.00000     0.00000     0.00000
  -------------------------------------------------------------------------------------
  Total      -4.28699    -4.28699   -16.85306     0.00000     0.00000    -0.00000
  in kB     -21.73525   -21.73523   -85.44578     0.00000     0.00000    -0.00000
  external pressure =      -42.97 kB  Pullay stress =        0.00 kB


 VOLUME and BASIS-vectors are now :
 -----------------------------------------------------------------------------
  energy-cutoff  :      520.00
  volume of cell :      316.01
      direct lattice vectors                 reciprocal lattice vectors
     2.600457673 -1.501374484  0.000000000     0.384547693  0.000000000 -0.000000000
     0.000000000  3.002748968  0.000000000     0.192273847  0.333028172 -0.000000000
     0.000000000 -0.000000000 40.469694788     0.000000000  0.000000000  0.024709848

  length of vectors
     3.002749648  3.002748968 40.469694788     0.384547693  0.384547781  0.024709848


 FORCES acting on ions
    electron-ion (+dipol)            ewald-force                    non-local-force                 convergence-correction
 -----------------------------------------------------------------------------------------------
   0.223E-05 -.442E-06 0.115E+04   0.236E-04 -.263E-04 -.114E+04   -.162E-15 0.246E-16 -.922E+01   0.697E-09 -.107E-08 0.182E-01
   0.106E-02 -.184E-02 0.899E+03   0.565E-04 -.967E-04 -.899E+03   -.442E-18 0.117E-20 -.284E-02   -.581E-09 0.921E-09 0.275E-01
   0.989E-09 0.365E-09 0.385E+03   0.386E-07 -.436E-07 -.385E+03   -.368E-18 0.429E-19 -.218E-01   -.833E-09 0.144E-08 0.393E-01
   0.107E-02 -.185E-02 0.128E+03   0.553E-04 -.957E-04 -.128E+03   -.163E-18 0.310E-19 -.957E-02   0.189E-08 -.282E-08 0.362E-01
   -.128E-08 -.339E-09 -.385E+03   -.502E-07 0.568E-07 0.385E+03   0.361E-18 -.492E-19 0.207E-01   0.121E-08 -.192E-08 0.524E-02
   0.107E-02 -.185E-02 -.641E+03   0.553E-04 -.957E-04 0.641E+03   0.324E-18 -.551E-19 0.185E-01   -.138E-08 0.197E-08 -.178E-01
   -.223E-05 0.442E-06 -.115E+04   -.235E-04 0.263E-04 0.114E+04   0.171E-15 -.316E-16 0.923E+01   -.135E-08 0.197E-08 -.339E-01
   -.107E-02 0.185E-02 0.641E+03   -.553E-04 0.957E-04 -.641E+03   -.341E-18 0.488E-19 -.197E-01   -.457E-09 0.117E-08 0.330E-01
   -.107E-02 0.185E-02 -.128E+03   -.553E-04 0.957E-04 0.128E+03   0.150E-18 -.304E-20 0.739E-02   -.815E-09 0.122E-08 0.306E-01
   -.106E-02 0.184E-02 -.899E+03   -.565E-04 0.967E-04 0.899E+03   0.439E-18 -.796E-21 0.193E-02   0.903E-10 -.171E-09 -.357E-01
   0.456E-07 -.386E-07 0.257E+03   -.742E-07 0.833E-07 -.257E+03   0.159E-18 0.105E-18 0.803E-02   -.345E-09 0.596E-09 0.984E-02
   -.253E-07 0.338E-07 -.149E-01   0.194E-07 -.217E-07 0.451E-02   -.681E-19 -.261E-19 -.245E-02   0.117E-09 -.190E-09 0.113E-01
   -.115E-07 -.308E-08 -.257E+03   0.402E-07 -.452E-07 0.257E+03   -.286E-19 0.167E-20 -.405E-02   0.354E-09 -.628E-09 -.903E-02
   0.470E-04 -.788E-04 0.346E+03   -.524E-04 0.867E-04 -.346E+03   0.202E-17 0.343E-17 0.999E-01   0.167E-09 -.281E-09 0.747E-02
   0.424E-04 -.734E-04 0.855E+02   -.475E-04 0.823E-04 -.855E+02   0.182E-19 -.142E-19 0.160E-02   -.143E-09 0.237E-09 0.126E-01
   0.424E-04 -.734E-04 -.171E+03   -.475E-04 0.823E-04 0.171E+03   -.147E-19 0.113E-20 -.275E-02   -.458E-09 0.768E-09 -.213E-02
   -.423E-04 0.734E-04 0.171E+03   0.475E-04 -.823E-04 -.171E+03   0.150E-19 -.117E-20 0.284E-02   0.358E-09 -.607E-09 0.121E-01
   -.424E-04 0.734E-04 -.855E+02   0.475E-04 -.823E-04 0.855E+02   -.122E-18 0.187E-20 -.454E-02   0.300E-09 -.484E-09 0.617E-02
   -.470E-04 0.788E-04 -.346E+03   0.524E-04 -.868E-04 0.346E+03   -.721E-17 0.139E-16 -.951E-01   -.748E-09 0.127E-08 -.118E-01
   -.380E-10 0.347E-10 0.126E-01   -.920E-10 0.898E-10 -.161E-02   -.416E-21 0.684E-20 -.144E-03   0.932E-13 0.348E-14 -.109E-01
   -.490E-06 -.410E-07 0.637E+03   0.218E-05 -.200E-05 -.632E+03   -.978E-16 0.208E-17 -.505E+01   0.715E-11 -.104E-10 0.590E-02
   0.152E-04 -.261E-04 0.414E+03   -.284E-05 0.461E-05 -.414E+03   0.766E-17 0.138E-16 0.249E+00   0.139E-10 -.266E-10 -.263E-03
   -.146E-04 0.253E-04 0.204E+03   0.260E-05 -.440E-05 -.204E+03   0.364E-18 -.888E-18 0.511E-01   -.146E-10 0.242E-10 -.650E-02
   0.490E-06 0.411E-07 -.637E+03   -.218E-05 0.200E-05 0.632E+03   0.839E-16 -.208E-17 0.505E+01   -.171E-10 0.197E-10 -.153E-01
   0.146E-04 -.253E-04 -.204E+03   -.260E-05 0.440E-05 0.204E+03   -.167E-17 0.888E-18 -.513E-01   0.423E-11 -.822E-11 -.138E-01
   -.152E-04 0.261E-04 -.414E+03   0.284E-05 -.461E-05 0.414E+03   -.718E-18 0.103E-18 -.249E+00   -.158E-11 0.430E-11 -.146E-01
 -----------------------------------------------------------------------------------------------
   0.333E-07 -.429E-07 -.952E-01   -.349E-13 -.495E-13 -.568E-13   -.480E-17 0.244E-16 0.113E-01   -.193E-08 0.340E-08 0.838E-01
 
 
 POSITION                                       TOTAL-FORCE (eV/Angst)
 -----------------------------------------------------------------------------------
      0.00000     -0.00000     10.06292        -0.000000     -0.000000     -0.001646
      0.86682      1.50138     12.48273        -0.000000     -0.000000     -0.012369
      0.00000     -0.00000     17.51471        -0.000000      0.000000     -0.009392
      0.86682      1.50138     20.03056        -0.000000     -0.000000     -0.002922
      0.00000     -0.00000     25.06232         0.000000     -0.000000      0.010161
      0.86682      1.50138     27.57857         0.000000      0.000000      0.008098
      0.00000     -0.00000     32.51429         0.000000     -0.000000      0.001281
      1.73364     -0.00000     14.99867        -0.000000      0.000000     -0.009719
      1.73364     -0.00000     22.54635         0.000000      0.000000      0.004818
      1.73364     -0.00000     30.09469         0.000000      0.000000      0.008713
      0.00000     -0.00000     13.73992         0.000000     -0.000000      0.014288
      0.00000     -0.00000     21.28867        -0.000000     -0.000000     -0.001534
      0.00000     -0.00000     28.83704        -0.000000      0.000000     -0.010997
      1.73364     -0.00000     11.22081         0.000000     -0.000000      0.006188
      1.73364     -0.00000     18.77233         0.000000     -0.000000      0.007473
      1.73364     -0.00000     26.32090        -0.000000      0.000000     -0.008383
      0.86682      1.50138     16.25621         0.000000     -0.000000      0.008716
      0.86682      1.50138     23.80489        -0.000000      0.000000     -0.008592
      0.86682      1.50138     31.35613        -0.000000     -0.000000     -0.004230
      0.00000     -0.00000      1.05373         0.000000     -0.000000     -0.000033
      0.00000     -0.00000      8.32451         0.000000     -0.000000      0.008583
      1.73364     -0.00000      5.94249        -0.000000     -0.000000     -0.004735
      0.86682      1.50138      3.47953         0.000000     -0.000000      0.001429
      0.00000     -0.00000     34.25262        -0.000000      0.000000     -0.008607
      1.73364     -0.00000     39.09761        -0.000000     -0.000000     -0.001199
      0.86682      1.50138     36.63464         0.000000     -0.000000      0.004610
 -----------------------------------------------------------------------------------
    total drift:                                0.000000     -0.000000     -0.000046


--------------------------------------------------------------------------------------------------------



  FREE ENERGIE OF THE ION-ELECTRON SYSTEM (eV)
  ---------------------------------------------------
  free  energy   TOTEN  =      -141.37821363 eV

  energy  without entropy=     -141.37559242  energy(sigma->0) =     -141.37690302
 
 d Force = 0.7341013E-04[ 0.448E-04, 0.102E-03]  d Energy = 0.7192533E-04 0.148E-05
 d Force =-0.5119783E+00[-0.512E+00,-0.512E+00]  d Ewald  =-0.5119783E+00 0.262E-07


--------------------------------------------------------------------------------------------------------


    POTLOK:  cpu time    0.20: real time    0.20


--------------------------------------------------------------------------------------------------------


 Conjugate gradient step on ions:
 trial-energy change:   -0.000072  1 .order   -0.000073   -0.000102   -0.000045
  (g-gl).g = 0.108E-03      g.g   = 0.142E-03  gl.gl    = 0.441E-03
 g(Force)  = 0.142E-03   g(Stress)= 0.000E+00 ortho     = 0.122E-04
 gamma     =   0.24412
 trial     =   0.70455
 opt step  =   1.25501  (harmonic =   1.25501) maximal distance =0.00150155
 next E    =  -141.378233   (d E  =  -0.00009)


--------------------------------------------------------------------------------------------------------


  
 reached required accuracy - stopping structural energy minimisation
     LOOP+:  cpu time   32.20: real time   32.24
    4ORBIT:  cpu time    0.00: real time    0.00

 total amount of memory used by VASP on root node   146326. kBytes
========================================================================

   base      :      30000. kBytes
   nonl-proj :      15050. kBytes
   fftplans  :      55169. kBytes
   grid      :      22118. kBytes
   one-center:         56. kBytes
   wavefun   :      23933. kBytes
 
  
  
 General timing and accounting informations for this job:
 ========================================================
  
                  Total CPU time used (sec):     1232.569
                            User time (sec):     1217.107
                          System time (sec):       15.462
                         Elapsed time (sec):     1234.338
  
                   Maximum memory used (kb):      251576.
                   Average memory used (kb):           0.
  
                          Minor page faults:       296000
                          Major page faults:            0
                 Voluntary context switches:          161
