       N       E                     dE             d eps       ncg     rms          rms(c)
DAV:   1     0.493231920403E+03    0.49323E+03   -0.44391E+04  6380   0.133E+03
DAV:   2    -0.100381050037E+03   -0.59361E+03   -0.56137E+03  8125   0.255E+02
DAV:   3    -0.153203938410E+03   -0.52823E+02   -0.52491E+02  7550   0.830E+01
DAV:   4    -0.153944613029E+03   -0.74067E+00   -0.73925E+00  7600   0.106E+01
DAV:   5    -0.153959372448E+03   -0.14759E-01   -0.14747E-01  7720   0.145E+00    0.244E+01
DAV:   6    -0.139077073934E+03    0.14882E+02   -0.12220E+02  7365   0.334E+01    0.214E+01
DAV:   7    -0.138761563726E+03    0.31551E+00   -0.59509E+01  7350   0.130E+01    0.107E+01
DAV:   8    -0.135370390778E+03    0.33912E+01   -0.26729E+00  7760   0.959E+00    0.757E+00
DAV:   9    -0.139826109450E+03   -0.44557E+01   -0.37683E+01  8120   0.117E+01    0.205E+01
DAV:  10    -0.134074093508E+03    0.57520E+01   -0.15045E+01  7240   0.555E+00    0.432E+00
DAV:  11    -0.134111285034E+03   -0.37192E-01   -0.27554E+00  6995   0.231E+00    0.301E+00
DAV:  12    -0.134335465739E+03   -0.22418E+00   -0.53442E-01  7860   0.172E+00    0.517E+00
DAV:  13    -0.134062475727E+03    0.27299E+00   -0.97792E-02  7420   0.104E+00    0.240E+00
DAV:  14    -0.133977336360E+03    0.85139E-01   -0.13605E-01  7850   0.931E-01    0.586E-01
DAV:  15    -0.133977806588E+03   -0.47023E-03   -0.75026E-03  6920   0.256E-01    0.583E-01
DAV:  16    -0.133976896401E+03    0.91019E-03   -0.15098E-04  8560   0.471E-02    0.572E-01
DAV:  17    -0.133962245417E+03    0.14651E-01   -0.22125E-02  8860   0.580E-01    0.501E-01
DAV:  18    -0.133948970341E+03    0.13275E-01   -0.61607E-02  8785   0.105E+00    0.834E-01
DAV:  19    -0.133947686249E+03    0.12841E-02   -0.29588E-02  7795   0.644E-01    0.104E+00
DAV:  20    -0.133938971523E+03    0.87147E-02   -0.91000E-03  8505   0.572E-01    0.797E-01
DAV:  21    -0.133934970654E+03    0.40009E-02   -0.32440E-03  7145   0.310E-01    0.612E-01
DAV:  22    -0.133929433365E+03    0.55373E-02   -0.54365E-03  7390   0.500E-01    0.391E-01
DAV:  23    -0.133927616157E+03    0.18172E-02   -0.65094E-03  8775   0.696E-01    0.498E-01
DAV:  24    -0.133925347287E+03    0.22689E-02   -0.89258E-03  7395   0.648E-01    0.414E-01
DAV:  25    -0.133924813826E+03    0.53346E-03   -0.39133E-03  9615   0.697E-01    0.420E-01
DAV:  26    -0.133924675486E+03    0.13834E-03   -0.37408E-03  7170   0.306E-01    0.486E-01
DAV:  27    -0.133924204198E+03    0.47129E-03   -0.12411E-03  7140   0.161E-01    0.447E-01
DAV:  28    -0.133923917418E+03    0.28678E-03   -0.50248E-04  7380   0.784E-02    0.421E-01
DAV:  29    -0.133922748286E+03    0.11691E-02   -0.12929E-03  7765   0.170E-01    0.230E-01
DAV:  30    -0.133922286069E+03    0.46222E-03   -0.26517E-03  7110   0.192E-01    0.491E-02
DAV:  31    -0.133922258470E+03    0.27600E-04   -0.19009E-04  7130   0.688E-02    0.314E-02
DAV:  32    -0.133922254294E+03    0.41759E-05   -0.95845E-05  8485   0.120E-01
   1 F= -.13392225E+03 E0= -.13391816E+03  d E =-.133922E+03
       N       E                     dE             d eps       ncg     rms          rms(c)
DAV:   1    -0.136500264194E+03   -0.25780E+01   -0.87489E+01  6645   0.424E+01    0.762E+00
DAV:   2    -0.137314141674E+03   -0.81388E+00   -0.11803E+01  8465   0.114E+01    0.136E+01
DAV:   3    -0.135658487557E+03    0.16557E+01   -0.82088E+00  7710   0.515E+00    0.344E+00
DAV:   4    -0.135427439729E+03    0.23105E+00   -0.50156E-01  7015   0.295E+00    0.158E+00
DAV:   5    -0.135501395249E+03   -0.73956E-01   -0.75873E-01  8215   0.210E+00    0.456E+00
DAV:   6    -0.135391387658E+03    0.11001E+00   -0.14607E+00  8560   0.149E+00    0.157E+00
DAV:   7    -0.135376268918E+03    0.15119E-01   -0.66730E-02  7240   0.708E-01    0.471E-01
DAV:   8    -0.135375267142E+03    0.10018E-02   -0.19784E-02  6995   0.536E-01    0.226E-01
DAV:   9    -0.135374527847E+03    0.73930E-03   -0.28860E-03  7060   0.205E-01    0.126E-01
DAV:  10    -0.135374242779E+03    0.28507E-03   -0.10372E-03  7225   0.125E-01    0.760E-02
DAV:  11    -0.135373956747E+03    0.28603E-03   -0.25585E-04  9670   0.144E-01    0.358E-02
DAV:  12    -0.135373734053E+03    0.22269E-03   -0.22757E-04  8730   0.143E-01    0.411E-02
DAV:  13    -0.135373480290E+03    0.25376E-03   -0.22361E-04  8605   0.150E-01    0.345E-02
DAV:  14    -0.135373193364E+03    0.28693E-03   -0.35733E-04  8605   0.252E-01    0.287E-02
DAV:  15    -0.135373073126E+03    0.12024E-03   -0.39852E-04  8865   0.234E-01    0.966E-03
DAV:  16    -0.135373068280E+03    0.48459E-05   -0.35180E-04  6740   0.155E-01    0.102E-02
DAV:  17    -0.135373083580E+03   -0.15300E-04   -0.20069E-04  6410   0.528E-02    0.187E-02
DAV:  18    -0.135373079098E+03    0.44817E-05   -0.15361E-05  3795   0.214E-02
   2 F= -.13537308E+03 E0= -.13536892E+03  d E =-.145082E+01
       N       E                     dE             d eps       ncg     rms          rms(c)
DAV:   1    -0.136660231196E+03   -0.12871E+01   -0.76835E+01  6755   0.397E+01    0.708E+00
DAV:   2    -0.136309895945E+03    0.35034E+00   -0.37904E+00  7910   0.876E+00    0.704E+00
DAV:   3    -0.136275255809E+03    0.34640E-01   -0.45856E+00  8250   0.526E+00    0.499E+00
DAV:   4    -0.135730190728E+03    0.54507E+00   -0.42245E-01  7300   0.336E+00    0.190E+00
DAV:   5    -0.135985984426E+03   -0.25579E+00   -0.27510E+00  8820   0.283E+00    0.559E+00
DAV:   6    -0.135685094621E+03    0.30089E+00   -0.83158E-01  8755   0.213E+00    0.734E-01
DAV:   7    -0.135685403289E+03   -0.30867E-03   -0.53073E-02  6905   0.836E-01    0.292E-01
DAV:   8    -0.135685104455E+03    0.29883E-03   -0.88129E-03  6995   0.269E-01    0.281E-01
DAV:   9    -0.135685172566E+03   -0.68110E-04   -0.12391E-02  7850   0.192E-01    0.254E-01
DAV:  10    -0.135684731962E+03    0.44060E-03   -0.23844E-03  7385   0.116E-01    0.535E-02
DAV:  11    -0.135684709160E+03    0.22802E-04   -0.16723E-04  7115   0.560E-02    0.212E-02
DAV:  12    -0.135684709844E+03   -0.68398E-06   -0.46610E-05  6460   0.307E-02
   3 F= -.13568471E+03 E0= -.13567847E+03  d E =-.176246E+01
       N       E                     dE             d eps       ncg     rms          rms(c)
DAV:   1    -0.137222866686E+03   -0.15382E+01   -0.78876E+01  6395   0.367E+01    0.555E+00
DAV:   2    -0.137578790400E+03   -0.35592E+00   -0.52741E+00  7090   0.959E+00    0.842E+00
DAV:   3    -0.136922755554E+03    0.65603E+00   -0.92930E+00  9155   0.550E+00    0.337E+00
DAV:   4    -0.136747547396E+03    0.17521E+00   -0.25256E-01  7125   0.241E+00    0.211E+00
DAV:   5    -0.136683349580E+03    0.64198E-01   -0.26439E-01  6955   0.227E+00    0.660E-01
DAV:   6    -0.136682687991E+03    0.66159E-03   -0.61534E-02  7170   0.785E-01    0.818E-01
DAV:   7    -0.136681865888E+03    0.82210E-03   -0.11363E-01  9485   0.467E-01    0.798E-01
DAV:   8    -0.136676359337E+03    0.55066E-02   -0.31794E-02  7025   0.421E-01    0.141E-01
DAV:   9    -0.136676144086E+03    0.21525E-03   -0.28478E-03  7135   0.215E-01    0.820E-02
DAV:  10    -0.136676068459E+03    0.75627E-04   -0.10838E-03  6980   0.106E-01    0.562E-02
DAV:  11    -0.136676040686E+03    0.27773E-04   -0.69548E-05  7285   0.318E-02    0.273E-02
DAV:  12    -0.136676036629E+03    0.40574E-05   -0.56502E-05  7070   0.284E-02
   4 F= -.13667604E+03 E0= -.13667004E+03  d E =-.991327E+00
       N       E                     dE             d eps       ncg     rms          rms(c)
DAV:   1    -0.137493921011E+03   -0.81788E+00   -0.65693E+02  6535   0.105E+02    0.132E+01
DAV:   2    -0.137627852540E+03   -0.13393E+00   -0.38693E+01  7240   0.195E+01    0.766E+00
DAV:   3    -0.136767934931E+03    0.85992E+00   -0.34382E+00  7440   0.732E+00    0.315E+00
DAV:   4    -0.136481658887E+03    0.28628E+00   -0.62158E-01  7485   0.407E+00    0.165E+00
DAV:   5    -0.136415563798E+03    0.66095E-01   -0.21608E-01  7210   0.217E+00    0.464E-01
DAV:   6    -0.136411711612E+03    0.38522E-02   -0.44123E-02  7375   0.828E-01    0.324E-01
DAV:   7    -0.136409207774E+03    0.25038E-02   -0.60297E-03  7385   0.343E-01    0.166E-01
DAV:   8    -0.136407677316E+03    0.15305E-02   -0.17270E-03  8460   0.386E-01    0.906E-02
DAV:   9    -0.136406877315E+03    0.80000E-03   -0.13547E-03  9040   0.333E-01    0.450E-02
DAV:  10    -0.136406422638E+03    0.45468E-03   -0.90004E-04  8110   0.248E-01    0.292E-02
DAV:  11    -0.136406023517E+03    0.39912E-03   -0.40262E-04  8500   0.206E-01    0.190E-02
DAV:  12    -0.136405793592E+03    0.22992E-03   -0.39460E-04  8400   0.193E-01    0.214E-02
DAV:  13    -0.136405811638E+03   -0.18046E-04   -0.52427E-04  6910   0.894E-02    0.245E-02
DAV:  14    -0.136405784046E+03    0.27592E-04   -0.69821E-05  6240   0.529E-02    0.985E-03
DAV:  15    -0.136405783902E+03    0.14396E-06   -0.17715E-05  4395   0.203E-02
   5 F= -.13640578E+03 E0= -.13640390E+03  d E =-.721074E+00
       N       E                     dE             d eps       ncg     rms          rms(c)
DAV:   1    -0.138516272183E+03   -0.21105E+01   -0.30160E+02  6410   0.735E+01    0.104E+01
DAV:   2    -0.137888257850E+03    0.62801E+00   -0.23780E+01  7220   0.164E+01    0.409E+00
DAV:   3    -0.137529301367E+03    0.35896E+00   -0.12289E+00  7350   0.519E+00    0.281E+00
DAV:   4    -0.137361338321E+03    0.16796E+00   -0.47366E-01  7660   0.334E+00    0.112E+00
DAV:   5    -0.137315023668E+03    0.46315E-01   -0.12826E-01  7395   0.181E+00    0.605E-01
DAV:   6    -0.137310638393E+03    0.43853E-02   -0.56610E-02  7165   0.912E-01    0.239E-01
DAV:   7    -0.137308802767E+03    0.18356E-02   -0.58317E-03  7245   0.358E-01    0.165E-01
DAV:   8    -0.137308090343E+03    0.71242E-03   -0.28734E-03  7830   0.315E-01    0.820E-02
DAV:   9    -0.137307855026E+03    0.23532E-03   -0.12965E-03  7390   0.226E-01    0.450E-02
DAV:  10    -0.137307838805E+03    0.16222E-04   -0.49595E-04  7140   0.104E-01    0.400E-02
DAV:  11    -0.137307797649E+03    0.41156E-04   -0.27878E-04  7130   0.733E-02    0.216E-02
DAV:  12    -0.137307772116E+03    0.25533E-04   -0.39379E-05  5115   0.561E-02    0.180E-02
DAV:  13    -0.137307760530E+03    0.11585E-04   -0.45114E-05  5545   0.433E-02    0.558E-03
DAV:  14    -0.137307758510E+03    0.20206E-05   -0.17826E-05  4310   0.285E-02
   6 F= -.13730776E+03 E0= -.13730373E+03  d E =-.162305E+01
       N       E                     dE             d eps       ncg     rms          rms(c)
DAV:   1    -0.137583548666E+03   -0.27579E+00   -0.40628E+01  6450   0.276E+01    0.345E+00
DAV:   2    -0.137484120548E+03    0.99428E-01   -0.17789E+00  7110   0.518E+00    0.167E+00
DAV:   3    -0.137436268557E+03    0.47852E-01   -0.11051E-01  7170   0.160E+00    0.784E-01
DAV:   4    -0.137417683629E+03    0.18585E-01   -0.58554E-02  7175   0.117E+00    0.466E-01
DAV:   5    -0.137411825273E+03    0.58584E-02   -0.18985E-02  7030   0.574E-01    0.152E-01
DAV:   6    -0.137411521361E+03    0.30391E-03   -0.38718E-03  7180   0.279E-01    0.957E-02
DAV:   7    -0.137411393396E+03    0.12797E-03   -0.49726E-04  7470   0.119E-01    0.641E-02
DAV:   8    -0.137411305534E+03    0.87862E-04   -0.66305E-04  8045   0.166E-01    0.358E-02
DAV:   9    -0.137411268347E+03    0.37187E-04   -0.17695E-04  7570   0.761E-02    0.136E-02
DAV:  10    -0.137411263322E+03    0.50248E-05   -0.42177E-05  5865   0.306E-02
   7 F= -.13741126E+03 E0= -.13740806E+03  d E =-.172655E+01
       N       E                     dE             d eps       ncg     rms          rms(c)
DAV:   1    -0.137911340206E+03   -0.50007E+00   -0.52828E+01  6380   0.298E+01    0.238E+00
DAV:   2    -0.138001564727E+03   -0.90225E-01   -0.24176E+00  7255   0.585E+00    0.151E+00
DAV:   3    -0.137963630308E+03    0.37934E-01   -0.15747E-01  7235   0.161E+00    0.835E-01
DAV:   4    -0.137952500377E+03    0.11130E-01   -0.79689E-02  7100   0.108E+00    0.346E-01
DAV:   5    -0.137947263783E+03    0.52366E-02   -0.10272E-02  7165   0.638E-01    0.169E-01
DAV:   6    -0.137946568805E+03    0.69498E-03   -0.62395E-03  7565   0.450E-01    0.107E-01
DAV:   7    -0.137946304893E+03    0.26391E-03   -0.14369E-03  7155   0.180E-01    0.706E-02
DAV:   8    -0.137945908167E+03    0.39673E-03   -0.10001E-03  7475   0.182E-01    0.424E-02
DAV:   9    -0.137945748046E+03    0.16012E-03   -0.20965E-04  8415   0.130E-01    0.332E-02
DAV:  10    -0.137945590230E+03    0.15782E-03   -0.29767E-04  8710   0.172E-01    0.144E-02
DAV:  11    -0.137945533398E+03    0.56831E-04   -0.19774E-04  7050   0.998E-02    0.171E-02
DAV:  12    -0.137945429471E+03    0.10393E-03   -0.15052E-04  7585   0.129E-01    0.123E-02
DAV:  13    -0.137945419557E+03    0.99143E-05   -0.93230E-05  7110   0.905E-02
   8 F= -.13794542E+03 E0= -.13794349E+03  d E =-.534156E+00
       N       E                     dE             d eps       ncg     rms          rms(c)
DAV:   1    -0.138152733784E+03   -0.20730E+00   -0.73436E+01  6380   0.336E+01    0.280E+00
DAV:   2    -0.138268483574E+03   -0.11575E+00   -0.35860E+00  7355   0.663E+00    0.164E+00
DAV:   3    -0.138221049717E+03    0.47434E-01   -0.19157E-01  7270   0.176E+00    0.931E-01
DAV:   4    -0.138195495391E+03    0.25554E-01   -0.10472E-01  7325   0.130E+00    0.370E-01
DAV:   5    -0.138184349299E+03    0.11146E-01   -0.18815E-02  7300   0.787E-01    0.168E-01
DAV:   6    -0.138180290450E+03    0.40588E-02   -0.96329E-03  7520   0.492E-01    0.170E-01
DAV:   7    -0.138178022699E+03    0.22678E-02   -0.24786E-03  7805   0.303E-01    0.101E-01
DAV:   8    -0.138174912004E+03    0.31107E-02   -0.32287E-03  8610   0.432E-01    0.491E-02
DAV:   9    -0.138173703336E+03    0.12087E-02   -0.19687E-03  7525   0.252E-01    0.495E-02
DAV:  10    -0.138171673441E+03    0.20299E-02   -0.16871E-03  8215   0.434E-01    0.956E-02
DAV:  11    -0.138170493797E+03    0.11796E-02   -0.16837E-03  8325   0.371E-01    0.595E-02
DAV:  12    -0.138169404376E+03    0.10894E-02   -0.20655E-03  9105   0.528E-01    0.309E-02
DAV:  13    -0.138169023496E+03    0.38088E-03   -0.18498E-03  8280   0.373E-01    0.271E-02
DAV:  14    -0.138168839256E+03    0.18424E-03   -0.88222E-04  8675   0.299E-01    0.129E-02
DAV:  15    -0.138168854483E+03   -0.15227E-04   -0.64556E-04  7080   0.158E-01    0.127E-02
DAV:  16    -0.138168865298E+03   -0.10815E-04   -0.16054E-04  6630   0.464E-02    0.103E-02
DAV:  17    -0.138168863738E+03    0.15601E-05   -0.19466E-05  4880   0.169E-02
   9 F= -.13816886E+03 E0= -.13816630E+03  d E =-.757600E+00
       N       E                     dE             d eps       ncg     rms          rms(c)
DAV:   1    -0.139167454298E+03   -0.99859E+00   -0.30174E+01  6440   0.246E+01    0.340E+00
DAV:   2    -0.139022437569E+03    0.14502E+00   -0.12970E+00  7255   0.457E+00    0.116E+00
DAV:   3    -0.139001329638E+03    0.21108E-01   -0.61569E-02  7270   0.109E+00    0.582E-01
DAV:   4    -0.138991521988E+03    0.98077E-02   -0.25901E-02  7475   0.816E-01    0.208E-01
DAV:   5    -0.138989608692E+03    0.19133E-02   -0.62296E-03  7400   0.339E-01    0.962E-02
DAV:   6    -0.138987836746E+03    0.17719E-02   -0.23235E-03  7135   0.244E-01    0.790E-02
DAV:   7    -0.138986650765E+03    0.11860E-02   -0.43726E-04  8270   0.161E-01    0.780E-02
DAV:   8    -0.138984732348E+03    0.19184E-02   -0.77448E-04  9050   0.303E-01    0.507E-02
DAV:   9    -0.138980592952E+03    0.41394E-02   -0.31134E-03  8935   0.755E-01    0.606E-02
DAV:  10    -0.138977619306E+03    0.29736E-02   -0.67072E-03  9170   0.107E+00    0.420E-02
DAV:  11    -0.138977577680E+03    0.41626E-04   -0.61646E-03  7505   0.511E-01    0.448E-02
DAV:  12    -0.138977680040E+03   -0.10236E-03   -0.19552E-03  7325   0.167E-01    0.467E-02
DAV:  13    -0.138977630914E+03    0.49126E-04   -0.13040E-04  7095   0.560E-02    0.330E-02
DAV:  14    -0.138977450835E+03    0.18008E-03   -0.55864E-04  7610   0.161E-01    0.410E-02
DAV:  15    -0.138977407939E+03    0.42896E-04   -0.25266E-04  8510   0.133E-01    0.497E-02
DAV:  16    -0.138977363315E+03    0.44624E-04   -0.35809E-04  7865   0.126E-01    0.266E-02
DAV:  17    -0.138977363184E+03    0.13089E-06   -0.14284E-04  7070   0.525E-02    0.192E-02
DAV:  18    -0.138977353502E+03    0.96819E-05   -0.87900E-05  6960   0.472E-02
  10 F= -.13897735E+03 E0= -.13897424E+03  d E =-.808490E+00
       N       E                     dE             d eps       ncg     rms          rms(c)
DAV:   1    -0.140793967697E+03   -0.18166E+01   -0.12897E+02  6400   0.513E+01    0.732E+00
DAV:   2    -0.140139633696E+03    0.65433E+00   -0.62910E+00  7420   0.100E+01    0.246E+00
DAV:   3    -0.140043170311E+03    0.96463E-01   -0.28046E-01  7430   0.237E+00    0.128E+00
DAV:   4    -0.139992996574E+03    0.50174E-01   -0.14267E-01  7560   0.197E+00    0.455E-01
DAV:   5    -0.139981900830E+03    0.11096E-01   -0.31766E-02  7330   0.797E-01    0.219E-01
DAV:   6    -0.139971522552E+03    0.10378E-01   -0.17723E-02  7525   0.618E-01    0.251E-01
DAV:   7    -0.139964877159E+03    0.66454E-02   -0.27101E-03  8750   0.512E-01    0.184E-01
DAV:   8    -0.139951756466E+03    0.13121E-01   -0.57331E-03  9760   0.978E-01    0.121E-01
DAV:   9    -0.139929664528E+03    0.22092E-01   -0.21643E-02  9810   0.238E+00    0.122E-01
DAV:  10    -0.139917291375E+03    0.12373E-01   -0.35563E-02  8605   0.270E+00    0.752E-02
DAV:  11    -0.139918932181E+03   -0.16408E-02   -0.28810E-02  7435   0.629E-01    0.115E-01
DAV:  12    -0.139918629940E+03    0.30224E-03   -0.13029E-03  7670   0.238E-01    0.952E-02
DAV:  13    -0.139917693169E+03    0.93677E-03   -0.24258E-03  7960   0.610E-01    0.525E-02
DAV:  14    -0.139916834097E+03    0.85907E-03   -0.35246E-03  7780   0.519E-01    0.102E-01
DAV:  15    -0.139916768330E+03    0.65767E-04   -0.15598E-03  7870   0.322E-01    0.112E-01
DAV:  16    -0.139916620431E+03    0.14790E-03   -0.23629E-03  7650   0.200E-01    0.346E-02
DAV:  17    -0.139916683751E+03   -0.63320E-04   -0.50748E-04  8575   0.237E-01    0.300E-02
DAV:  18    -0.139916565828E+03    0.11792E-03   -0.56991E-04  8650   0.324E-01    0.119E-02
DAV:  19    -0.139916562623E+03    0.32053E-05   -0.15583E-04  7705   0.161E-01    0.840E-03
DAV:  20    -0.139916554766E+03    0.78570E-05   -0.67234E-05  7230   0.587E-02
  11 F= -.13991655E+03 E0= -.13991370E+03  d E =-.174769E+01
       N       E                     dE             d eps       ncg     rms          rms(c)
DAV:   1    -0.140107105776E+03   -0.19054E+00   -0.17956E+01  6560   0.188E+01    0.271E+00
DAV:   2    -0.140005726313E+03    0.10138E+00   -0.74582E-01  7610   0.347E+00    0.916E-01
DAV:   3    -0.139991267203E+03    0.14459E-01   -0.41107E-02  7575   0.900E-01    0.439E-01
DAV:   4    -0.139984959511E+03    0.63077E-02   -0.16010E-02  7730   0.649E-01    0.150E-01
DAV:   5    -0.139983560475E+03    0.13990E-02   -0.36846E-03  7640   0.271E-01    0.706E-02
DAV:   6    -0.139982095305E+03    0.14652E-02   -0.19773E-03  7800   0.236E-01    0.813E-02
DAV:   7    -0.139981399924E+03    0.69538E-03   -0.41572E-04  9140   0.155E-01    0.612E-02
DAV:   8    -0.139980325561E+03    0.10744E-02   -0.12199E-03 10375   0.333E-01    0.344E-02
DAV:   9    -0.139980312035E+03    0.13527E-04   -0.64586E-04  7525   0.104E-01    0.327E-02
DAV:  10    -0.139980267559E+03    0.44476E-04   -0.15359E-04  7835   0.833E-02    0.142E-02
DAV:  11    -0.139980246361E+03    0.21198E-04   -0.41208E-05  7230   0.519E-02    0.114E-02
DAV:  12    -0.139980235479E+03    0.10883E-04   -0.31621E-05  5760   0.620E-02    0.579E-03
DAV:  13    -0.139980244177E+03   -0.86988E-05   -0.50615E-05  7165   0.496E-02
  12 F= -.13998024E+03 E0= -.13997753E+03  d E =-.181138E+01
       N       E                     dE             d eps       ncg     rms          rms(c)
DAV:   1    -0.140632004048E+03   -0.65177E+00   -0.18348E+01  6665   0.193E+01    0.282E+00
DAV:   2    -0.140500090857E+03    0.13191E+00   -0.42919E-01  7715   0.276E+00    0.138E+00
DAV:   3    -0.140458745714E+03    0.41345E-01   -0.93900E-02  7455   0.126E+00    0.503E-01
DAV:   4    -0.140452067153E+03    0.66786E-02   -0.24415E-02  7435   0.630E-01    0.150E-01
DAV:   5    -0.140450791154E+03    0.12760E-02   -0.28362E-03  7470   0.234E-01    0.603E-02
DAV:   6    -0.140450468009E+03    0.32315E-03   -0.45370E-04  7880   0.105E-01    0.441E-02
DAV:   7    -0.140450073533E+03    0.39448E-03   -0.18839E-04  9150   0.118E-01    0.224E-02
DAV:   8    -0.140449640177E+03    0.43336E-03   -0.33062E-04  8670   0.163E-01    0.223E-02
DAV:   9    -0.140449365193E+03    0.27498E-03   -0.32514E-04  8360   0.147E-01    0.151E-02
DAV:  10    -0.140449146673E+03    0.21852E-03   -0.32550E-04  8740   0.173E-01    0.113E-02
DAV:  11    -0.140449054412E+03    0.92261E-04   -0.24567E-04  7850   0.136E-01    0.101E-02
DAV:  12    -0.140449000979E+03    0.53433E-04   -0.12713E-04  8300   0.117E-01    0.815E-03
DAV:  13    -0.140448979167E+03    0.21812E-04   -0.85772E-05  7080   0.783E-02    0.644E-03
DAV:  14    -0.140448965310E+03    0.13857E-04   -0.34635E-05  6615   0.808E-02    0.400E-03
DAV:  15    -0.140448970596E+03   -0.52860E-05   -0.59434E-05  6305   0.269E-02
  13 F= -.14044897E+03 E0= -.14044765E+03  d E =-.468726E+00
       N       E                     dE             d eps       ncg     rms          rms(c)
DAV:   1    -0.140712083393E+03   -0.26312E+00   -0.12359E+01  6720   0.158E+01    0.228E+00
DAV:   2    -0.140629458830E+03    0.82625E-01   -0.29635E-01  7640   0.230E+00    0.114E+00
DAV:   3    -0.140601653544E+03    0.27805E-01   -0.65369E-02  7340   0.104E+00    0.432E-01
DAV:   4    -0.140594843001E+03    0.68105E-02   -0.18570E-02  7370   0.531E-01    0.139E-01
DAV:   5    -0.140592834304E+03    0.20087E-02   -0.27293E-03  7540   0.253E-01    0.590E-02
DAV:   6    -0.140591656182E+03    0.11781E-02   -0.71004E-04  8050   0.178E-01    0.490E-02
DAV:   7    -0.140590079243E+03    0.15769E-02   -0.73257E-04  9850   0.251E-01    0.324E-02
DAV:   8    -0.140588322071E+03    0.17572E-02   -0.14064E-03  8710   0.375E-01    0.362E-02
DAV:   9    -0.140587487090E+03    0.83498E-03   -0.11228E-03  8240   0.287E-01    0.292E-02
DAV:  10    -0.140586414352E+03    0.10727E-02   -0.11437E-03 10570   0.498E-01    0.264E-02
DAV:  11    -0.140586225550E+03    0.18880E-03   -0.10425E-03  7650   0.209E-01    0.252E-02
DAV:  12    -0.140585873120E+03    0.35243E-03   -0.53701E-04 10800   0.320E-01    0.235E-02
DAV:  13    -0.140585837640E+03    0.35480E-04   -0.42759E-04  7490   0.125E-01    0.229E-02
DAV:  14    -0.140585838412E+03   -0.77260E-06   -0.26063E-04  7080   0.621E-02    0.179E-02
DAV:  15    -0.140585776476E+03    0.61936E-04   -0.90341E-05  8225   0.135E-01    0.869E-03
DAV:  16    -0.140585768027E+03    0.84491E-05   -0.66619E-05  7420   0.752E-02
  14 F= -.14058577E+03 E0= -.14058379E+03  d E =-.605524E+00
       N       E                     dE             d eps       ncg     rms          rms(c)
DAV:   1    -0.140588512373E+03   -0.27359E-02   -0.12952E-01  6830   0.163E+00    0.233E-01
DAV:   2    -0.140587666219E+03    0.84615E-03   -0.32857E-03  7615   0.243E-01    0.117E-01
DAV:   3    -0.140587367088E+03    0.29913E-03   -0.59089E-04  7335   0.105E-01    0.462E-02
DAV:   4    -0.140587287217E+03    0.79871E-04   -0.21484E-04  7370   0.608E-02    0.137E-02
DAV:   5    -0.140587264720E+03    0.22497E-04   -0.32833E-05  5970   0.277E-02    0.666E-03
DAV:   6    -0.140587246053E+03    0.18667E-04   -0.87669E-06  5090   0.245E-02    0.538E-03
DAV:   7    -0.140587229701E+03    0.16352E-04   -0.60646E-06  4990   0.262E-02    0.435E-03
DAV:   8    -0.140587200279E+03    0.29422E-04   -0.22655E-05  6240   0.567E-02    0.437E-03
DAV:   9    -0.140587188092E+03    0.12187E-04   -0.23648E-05  6300   0.377E-02    0.421E-03
DAV:  10    -0.140587173190E+03    0.14902E-04   -0.11648E-05  5330   0.581E-02    0.499E-03
DAV:  11    -0.140587167848E+03    0.53416E-05   -0.18769E-05  5990   0.388E-02
  15 F= -.14058717E+03 E0= -.14058524E+03  d E =-.606924E+00
       N       E                     dE             d eps       ncg     rms          rms(c)
DAV:   1    -0.140672956933E+03   -0.85784E-01   -0.25501E+00  6420   0.701E+00    0.522E-01
DAV:   2    -0.140674355862E+03   -0.13989E-02   -0.75716E-02  7450   0.107E+00    0.303E-01
DAV:   3    -0.140671829632E+03    0.25262E-02   -0.31915E-03  7690   0.282E-01    0.154E-01
DAV:   4    -0.140670290809E+03    0.15388E-02   -0.14709E-03  7830   0.255E-01    0.533E-02
DAV:   5    -0.140669534213E+03    0.75660E-03   -0.82693E-04  8480   0.217E-01    0.329E-02
DAV:   6    -0.140669083913E+03    0.45030E-03   -0.43351E-04  7550   0.133E-01    0.346E-02
DAV:   7    -0.140668230303E+03    0.85361E-03   -0.25410E-04  9000   0.194E-01    0.328E-02
DAV:   8    -0.140665809639E+03    0.24207E-02   -0.19636E-03  9630   0.767E-01    0.657E-02
DAV:   9    -0.140665350150E+03    0.45949E-03   -0.15253E-03  8090   0.313E-01    0.512E-02
DAV:  10    -0.140664866957E+03    0.48319E-03   -0.11479E-03 10305   0.440E-01    0.300E-02
DAV:  11    -0.140664640925E+03    0.22603E-03   -0.68584E-04  8380   0.373E-01    0.256E-02
DAV:  12    -0.140664612398E+03    0.28527E-04   -0.74356E-04  7600   0.228E-01    0.163E-02
DAV:  13    -0.140664634484E+03   -0.22086E-04   -0.35087E-04  7130   0.736E-02    0.232E-02
DAV:  14    -0.140664634708E+03   -0.22418E-06   -0.77739E-06  4135   0.113E-02
  16 F= -.14066463E+03 E0= -.14066271E+03  d E =-.774669E-01
       N       E                     dE             d eps       ncg     rms          rms(c)
DAV:   1    -0.140710717172E+03   -0.46083E-01   -0.38492E+00  6515   0.873E+00    0.643E-01
DAV:   2    -0.140713457645E+03   -0.27405E-02   -0.11957E-01  7360   0.136E+00    0.378E-01
DAV:   3    -0.140709674556E+03    0.37831E-02   -0.48568E-03  7530   0.352E-01    0.196E-01
DAV:   4    -0.140707311502E+03    0.23631E-02   -0.24041E-03  7640   0.326E-01    0.713E-02
DAV:   5    -0.140706164612E+03    0.11469E-02   -0.12680E-03  8090   0.292E-01    0.413E-02
DAV:   6    -0.140705411194E+03    0.75342E-03   -0.79801E-04  7700   0.196E-01    0.448E-02
DAV:   7    -0.140704297557E+03    0.11136E-02   -0.43048E-04  8280   0.223E-01    0.475E-02
DAV:   8    -0.140700294895E+03    0.40027E-02   -0.30577E-03 10365   0.107E+00    0.932E-02
DAV:   9    -0.140699514768E+03    0.78013E-03   -0.27269E-03  7685   0.411E-01    0.722E-02
DAV:  10    -0.140698814269E+03    0.70050E-03   -0.17874E-03  8750   0.475E-01    0.306E-02
DAV:  11    -0.140698336449E+03    0.47782E-03   -0.10259E-03  9895   0.528E-01    0.270E-02
DAV:  12    -0.140698308257E+03    0.28193E-04   -0.13622E-03  7495   0.319E-01    0.287E-02
DAV:  13    -0.140698349339E+03   -0.41082E-04   -0.78176E-04  7305   0.111E-01    0.286E-02
DAV:  14    -0.140698339139E+03    0.10201E-04   -0.45589E-05  7145   0.286E-02    0.212E-02
DAV:  15    -0.140698319043E+03    0.20096E-04   -0.30360E-05  6820   0.376E-02    0.124E-02
DAV:  16    -0.140698308163E+03    0.10879E-04   -0.38679E-05  6965   0.529E-02    0.643E-03
DAV:  17    -0.140698309711E+03   -0.15477E-05   -0.26224E-05  5560   0.228E-02
  17 F= -.14069831E+03 E0= -.14069630E+03  d E =-.111142E+00
       N       E                     dE             d eps       ncg     rms          rms(c)
DAV:   1    -0.140751097559E+03   -0.52789E-01   -0.86782E+00  6400   0.125E+01    0.577E-01
DAV:   2    -0.140765629425E+03   -0.14532E-01   -0.20253E-01  7290   0.176E+00    0.314E-01
DAV:   3    -0.140763523674E+03    0.21058E-02   -0.26405E-03  7710   0.279E-01    0.196E-01
DAV:   4    -0.140762249380E+03    0.12743E-02   -0.46804E-03  7370   0.426E-01    0.583E-02
DAV:   5    -0.140762221804E+03    0.27575E-04   -0.18018E-03  7265   0.169E-01    0.682E-02
DAV:   6    -0.140762124083E+03    0.97721E-04   -0.11728E-04  7280   0.460E-02    0.427E-02
DAV:   7    -0.140761892249E+03    0.23183E-03   -0.27868E-04  7515   0.882E-02    0.235E-02
DAV:   8    -0.140761633508E+03    0.25874E-03   -0.13023E-04  8255   0.133E-01    0.478E-02
DAV:   9    -0.140761299360E+03    0.33415E-03   -0.18732E-04  9880   0.198E-01    0.273E-02
DAV:  10    -0.140760777253E+03    0.52211E-03   -0.61573E-04 10050   0.427E-01    0.246E-02
DAV:  11    -0.140760533247E+03    0.24401E-03   -0.75791E-04  8605   0.372E-01    0.225E-02
DAV:  12    -0.140760512264E+03    0.20983E-04   -0.61498E-04  7650   0.212E-01    0.128E-02
DAV:  13    -0.140760542894E+03   -0.30630E-04   -0.32347E-04  6940   0.634E-02    0.123E-02
DAV:  14    -0.140760541459E+03    0.14352E-05   -0.13679E-05  4160   0.150E-02
  18 F= -.14076054E+03 E0= -.14075845E+03  d E =-.622317E-01
       N       E                     dE             d eps       ncg     rms          rms(c)
DAV:   1    -0.140747028879E+03    0.13514E-01   -0.73953E+01  6390   0.365E+01    0.179E+00
DAV:   2    -0.140884445834E+03   -0.13742E+00   -0.19420E+00  7295   0.541E+00    0.985E-01
DAV:   3    -0.140864756444E+03    0.19689E-01   -0.26922E-02  7685   0.888E-01    0.610E-01
DAV:   4    -0.140852851347E+03    0.11905E-01   -0.49276E-02  7465   0.137E+00    0.202E-01
DAV:   5    -0.140852760336E+03    0.91011E-04   -0.17133E-02  7315   0.532E-01    0.214E-01
DAV:   6    -0.140851635049E+03    0.11253E-02   -0.19659E-03  7390   0.188E-01    0.107E-01
DAV:   7    -0.140849923053E+03    0.17120E-02   -0.12982E-03  7555   0.234E-01    0.583E-02
DAV:   8    -0.140847002153E+03    0.29209E-02   -0.11681E-03  9640   0.523E-01    0.104E-01
DAV:   9    -0.140843623294E+03    0.33789E-02   -0.24458E-03 10430   0.783E-01    0.568E-02
DAV:  10    -0.140839330992E+03    0.42923E-02   -0.61569E-03 10160   0.142E+00    0.908E-02
DAV:  11    -0.140838099148E+03    0.12318E-02   -0.68319E-03  7675   0.766E-01    0.631E-02
DAV:  12    -0.140838040062E+03    0.59085E-04   -0.35086E-03  7750   0.523E-01    0.844E-02
DAV:  13    -0.140838143815E+03   -0.10375E-03   -0.29285E-03  7355   0.248E-01    0.315E-02
DAV:  14    -0.140838185898E+03   -0.42084E-04   -0.30685E-04  7200   0.668E-02    0.449E-02
DAV:  15    -0.140838195989E+03   -0.10090E-04   -0.57975E-05  7095   0.393E-02    0.535E-02
DAV:  16    -0.140838190154E+03    0.58345E-05   -0.11548E-04  8310   0.858E-02    0.542E-02
DAV:  17    -0.140838166196E+03    0.23958E-04   -0.73221E-05  6875   0.369E-02    0.380E-02
DAV:  18    -0.140838145087E+03    0.21110E-04   -0.10194E-04  6965   0.429E-02    0.140E-02
DAV:  19    -0.140838144243E+03    0.84393E-06   -0.84508E-06  3920   0.198E-02
  19 F= -.14083814E+03 E0= -.14083618E+03  d E =-.139835E+00
       N       E                     dE             d eps       ncg     rms          rms(c)
DAV:   1    -0.140892391984E+03   -0.54247E-01   -0.71995E+00  6435   0.116E+01    0.480E-01
DAV:   2    -0.140904748528E+03   -0.12357E-01   -0.16828E-01  7415   0.169E+00    0.256E-01
DAV:   3    -0.140903559471E+03    0.11891E-02   -0.33458E-03  7520   0.258E-01    0.166E-01
DAV:   4    -0.140902821010E+03    0.73846E-03   -0.30202E-03  7485   0.251E-01    0.698E-02
DAV:   5    -0.140902702711E+03    0.11830E-03   -0.57759E-04  7660   0.139E-01    0.558E-02
DAV:   6    -0.140902639778E+03    0.62933E-04   -0.51940E-04  7610   0.123E-01    0.242E-02
DAV:   7    -0.140902619347E+03    0.20431E-04   -0.70286E-05  7155   0.514E-02    0.171E-02
DAV:   8    -0.140902574253E+03    0.45094E-04   -0.33167E-05  6785   0.815E-02    0.740E-03
DAV:   9    -0.140902562114E+03    0.12139E-04   -0.43611E-05  6900   0.431E-02    0.550E-03
DAV:  10    -0.140902553366E+03    0.87481E-05   -0.66049E-06  4790   0.335E-02
  20 F= -.14090255E+03 E0= -.14090057E+03  d E =-.644091E-01
       N       E                     dE             d eps       ncg     rms          rms(c)
DAV:   1    -0.140898404882E+03    0.41572E-02   -0.50110E+01  6440   0.308E+01    0.132E+00
DAV:   2    -0.140990495766E+03   -0.92091E-01   -0.12841E+00  7445   0.465E+00    0.726E-01
DAV:   3    -0.140980861671E+03    0.96341E-02   -0.30627E-02  7440   0.768E-01    0.477E-01
DAV:   4    -0.140975577298E+03    0.52844E-02   -0.24267E-02  7390   0.662E-01    0.206E-01
DAV:   5    -0.140974314713E+03    0.12626E-02   -0.35658E-03  7940   0.402E-01    0.159E-01
DAV:   6    -0.140973709076E+03    0.60564E-03   -0.44111E-03  8300   0.426E-01    0.642E-02
DAV:   7    -0.140973675527E+03    0.33549E-04   -0.12349E-03  7460   0.166E-01    0.552E-02
DAV:   8    -0.140973414930E+03    0.26060E-03   -0.21109E-04  7665   0.129E-01    0.251E-02
DAV:   9    -0.140973236455E+03    0.17847E-03   -0.25004E-04  8425   0.169E-01    0.294E-02
DAV:  10    -0.140973168039E+03    0.68416E-04   -0.26005E-04  8350   0.129E-01    0.132E-02
DAV:  11    -0.140973140445E+03    0.27594E-04   -0.18826E-04  7740   0.108E-01    0.240E-02
DAV:  12    -0.140973072622E+03    0.67823E-04   -0.38546E-05  7095   0.102E-01    0.136E-02
DAV:  13    -0.140973047476E+03    0.25146E-04   -0.44152E-05  6855   0.684E-02    0.101E-02
DAV:  14    -0.140972999038E+03    0.48438E-04   -0.29696E-05  6420   0.106E-01    0.748E-03
DAV:  15    -0.140972949299E+03    0.49738E-04   -0.12812E-04  9180   0.186E-01    0.115E-02
DAV:  16    -0.140972952652E+03   -0.33529E-05   -0.13002E-04  7110   0.651E-02    0.866E-03
DAV:  17    -0.140972953531E+03   -0.87919E-06   -0.36994E-05  6275   0.272E-02
  21 F= -.14097295E+03 E0= -.14097032E+03  d E =-.134809E+00
       N       E                     dE             d eps       ncg     rms          rms(c)
DAV:   1    -0.141015773633E+03   -0.42821E-01   -0.17383E+01  6415   0.181E+01    0.729E-01
DAV:   2    -0.141044775995E+03   -0.29002E-01   -0.41650E-01  7445   0.261E+00    0.406E-01
DAV:   3    -0.141040408300E+03    0.43677E-02   -0.77286E-03  7530   0.483E-01    0.259E-01
DAV:   4    -0.141037508666E+03    0.28996E-02   -0.74488E-03  7790   0.599E-01    0.927E-02
DAV:   5    -0.141037049930E+03    0.45874E-03   -0.46861E-03  7440   0.363E-01    0.896E-02
DAV:   6    -0.141036879829E+03    0.17010E-03   -0.80099E-04  7530   0.124E-01    0.631E-02
DAV:   7    -0.141036634228E+03    0.24560E-03   -0.23205E-04  7520   0.793E-02    0.363E-02
DAV:   8    -0.141036318734E+03    0.31549E-03   -0.39097E-04  7660   0.159E-01    0.337E-02
DAV:   9    -0.141036231184E+03    0.87550E-04   -0.31923E-04  7820   0.117E-01    0.321E-02
DAV:  10    -0.141036159766E+03    0.71418E-04   -0.39863E-04  8515   0.148E-01    0.357E-02
DAV:  11    -0.141036082198E+03    0.77569E-04   -0.16635E-04  7560   0.823E-02    0.109E-02
DAV:  12    -0.141036055064E+03    0.27133E-04   -0.85783E-05  7350   0.707E-02    0.213E-02
DAV:  13    -0.141036019591E+03    0.35473E-04   -0.32989E-05  6720   0.699E-02    0.119E-02
DAV:  14    -0.141036004546E+03    0.15046E-04   -0.30730E-05  6370   0.487E-02    0.857E-03
DAV:  15    -0.141035966143E+03    0.38403E-04   -0.24049E-05  6175   0.114E-01    0.114E-02
DAV:  16    -0.141035935104E+03    0.31038E-04   -0.83757E-05  8285   0.142E-01    0.101E-02
DAV:  17    -0.141035937562E+03   -0.24577E-05   -0.82591E-05  6785   0.484E-02
  22 F= -.14103594E+03 E0= -.14103337E+03  d E =-.629840E-01
       N       E                     dE             d eps       ncg     rms          rms(c)
DAV:   1    -0.141038650381E+03   -0.27153E-02   -0.96667E+00  6445   0.135E+01    0.541E-01
DAV:   2    -0.141054535228E+03   -0.15885E-01   -0.23033E-01  7385   0.194E+00    0.304E-01
DAV:   3    -0.141052107925E+03    0.24273E-02   -0.43842E-03  7450   0.367E-01    0.194E-01
DAV:   4    -0.141050491272E+03    0.16167E-02   -0.42118E-03  7865   0.458E-01    0.684E-02
DAV:   5    -0.141050267632E+03    0.22364E-03   -0.27598E-03  7450   0.273E-01    0.706E-02
DAV:   6    -0.141050193437E+03    0.74194E-04   -0.41914E-04  7420   0.870E-02    0.552E-02
DAV:   7    -0.141050078183E+03    0.11525E-03   -0.12092E-04  7520   0.495E-02    0.371E-02
DAV:   8    -0.141049863492E+03    0.21469E-03   -0.41902E-04  7475   0.129E-01    0.357E-02
DAV:   9    -0.141049818497E+03    0.44995E-04   -0.19773E-04  7400   0.793E-02    0.294E-02
DAV:  10    -0.141049793532E+03    0.24964E-04   -0.25811E-04  7520   0.838E-02    0.264E-02
DAV:  11    -0.141049723225E+03    0.70308E-04   -0.11833E-04  7435   0.821E-02    0.767E-03
DAV:  12    -0.141049700203E+03    0.23022E-04   -0.93961E-05  7750   0.836E-02    0.165E-02
DAV:  13    -0.141049682215E+03    0.17987E-04   -0.49741E-05  7190   0.513E-02    0.738E-03
DAV:  14    -0.141049671051E+03    0.11164E-04   -0.12234E-05  4560   0.429E-02    0.589E-03
DAV:  15    -0.141049658500E+03    0.12552E-04   -0.13865E-05  5415   0.564E-02    0.100E-02
DAV:  16    -0.141049631308E+03    0.27191E-04   -0.54260E-05  8350   0.141E-01    0.993E-03
DAV:  17    -0.141049632183E+03   -0.87473E-06   -0.88311E-05  6965   0.622E-02
  23 F= -.14104963E+03 E0= -.14104741E+03  d E =-.766787E-01
       N       E                     dE             d eps       ncg     rms          rms(c)
DAV:   1    -0.141057407101E+03   -0.77758E-02   -0.88992E+00  6370   0.133E+01    0.530E-01
DAV:   2    -0.141077308501E+03   -0.19901E-01   -0.24483E-01  7360   0.196E+00    0.286E-01
DAV:   3    -0.141075584662E+03    0.17238E-02   -0.34235E-03  7625   0.286E-01    0.201E-01
DAV:   4    -0.141074038918E+03    0.15457E-02   -0.49289E-03  7440   0.385E-01    0.793E-02
DAV:   5    -0.141073779847E+03    0.25907E-03   -0.14362E-03  7560   0.179E-01    0.724E-02
DAV:   6    -0.141073509887E+03    0.26996E-03   -0.11425E-03  7500   0.175E-01    0.356E-02
DAV:   7    -0.141073300521E+03    0.20937E-03   -0.26083E-04  8505   0.120E-01    0.534E-02
DAV:   8    -0.141073094995E+03    0.20553E-03   -0.13639E-04  8755   0.947E-02    0.334E-02
DAV:   9    -0.141072625948E+03    0.46905E-03   -0.39918E-04  9355   0.250E-01    0.200E-02
DAV:  10    -0.141072421880E+03    0.20407E-03   -0.36896E-04  8680   0.184E-01    0.257E-02
DAV:  11    -0.141072163591E+03    0.25829E-03   -0.40477E-04 10185   0.299E-01    0.312E-02
DAV:  12    -0.141072020652E+03    0.14294E-03   -0.33563E-04  8720   0.254E-01    0.140E-02
DAV:  13    -0.141071980297E+03    0.40354E-04   -0.43586E-04  8025   0.204E-01    0.277E-02
DAV:  14    -0.141071961009E+03    0.19288E-04   -0.23425E-04  7415   0.938E-02    0.162E-02
DAV:  15    -0.141071945661E+03    0.15348E-04   -0.29964E-05  6805   0.704E-02    0.917E-03
DAV:  16    -0.141071938375E+03    0.72857E-05   -0.26958E-05  6255   0.715E-02
  24 F= -.14107194E+03 E0= -.14106968E+03  d E =-.223062E-01
       N       E                     dE             d eps       ncg     rms          rms(c)
DAV:   1    -0.141070331025E+03    0.16146E-02   -0.32312E+00  6400   0.803E+00    0.316E-01
DAV:   2    -0.141077433476E+03   -0.71025E-02   -0.87296E-02  7440   0.118E+00    0.171E-01
DAV:   3    -0.141076813746E+03    0.61973E-03   -0.13175E-03  7660   0.177E-01    0.120E-01
DAV:   4    -0.141076273466E+03    0.54028E-03   -0.15244E-03  7520   0.219E-01    0.457E-02
DAV:   5    -0.141076160417E+03    0.11305E-03   -0.48899E-04  7625   0.110E-01    0.401E-02
DAV:   6    -0.141076057913E+03    0.10250E-03   -0.37920E-04  7550   0.103E-01    0.216E-02
DAV:   7    -0.141075986676E+03    0.71237E-04   -0.84463E-05  8000   0.688E-02    0.288E-02
DAV:   8    -0.141075913839E+03    0.72837E-04   -0.58421E-05  7485   0.631E-02    0.136E-02
DAV:   9    -0.141075728700E+03    0.18514E-03   -0.15720E-04  9455   0.182E-01    0.145E-02
DAV:  10    -0.141075666071E+03    0.62629E-04   -0.12678E-04  7770   0.104E-01    0.154E-02
DAV:  11    -0.141075580136E+03    0.85935E-04   -0.13068E-04  9310   0.175E-01    0.185E-02
DAV:  12    -0.141075534363E+03    0.45773E-04   -0.10525E-04  8550   0.145E-01    0.956E-03
DAV:  13    -0.141075521270E+03    0.13093E-04   -0.15142E-04  7630   0.120E-01    0.153E-02
DAV:  14    -0.141075513278E+03    0.79923E-05   -0.76462E-05  7275   0.624E-02
  25 F= -.14107551E+03 E0= -.14107321E+03  d E =-.258811E-01
       N       E                     dE             d eps       ncg     rms          rms(c)
DAV:   1    -0.141084606794E+03   -0.90855E-02   -0.28404E+00  6395   0.756E+00    0.373E-01
DAV:   2    -0.141089230722E+03   -0.46239E-02   -0.70715E-02  7550   0.109E+00    0.206E-01
DAV:   3    -0.141088287328E+03    0.94339E-03   -0.16008E-03  7805   0.251E-01    0.123E-01
DAV:   4    -0.141087795754E+03    0.49157E-03   -0.11679E-03  7690   0.217E-01    0.376E-02
DAV:   5    -0.141087748082E+03    0.47672E-04   -0.55081E-04  7630   0.129E-01    0.282E-02
DAV:   6    -0.141087719507E+03    0.28575E-04   -0.16931E-04  7470   0.704E-02    0.176E-02
DAV:   7    -0.141087686347E+03    0.33161E-04   -0.13425E-05  5000   0.447E-02    0.115E-02
DAV:   8    -0.141087661010E+03    0.25337E-04   -0.11967E-05  5195   0.431E-02    0.732E-03
DAV:   9    -0.141087608648E+03    0.52362E-04   -0.33005E-05  7100   0.103E-01    0.616E-03
DAV:  10    -0.141087570863E+03    0.37784E-04   -0.40208E-05  6965   0.950E-02    0.755E-03
DAV:  11    -0.141087527528E+03    0.43336E-04   -0.56528E-05  8160   0.142E-01    0.555E-03
DAV:  12    -0.141087507235E+03    0.20293E-04   -0.69718E-05  8110   0.127E-01    0.593E-03
DAV:  13    -0.141087506561E+03    0.67439E-06   -0.99646E-05  6940   0.645E-02
  26 F= -.14108751E+03 E0= -.14108492E+03  d E =-.119933E-01
       N       E                     dE             d eps       ncg     rms          rms(c)
DAV:   1    -0.141088665713E+03   -0.11585E-02   -0.14561E+00  6410   0.542E+00    0.270E-01
DAV:   2    -0.141091057694E+03   -0.23920E-02   -0.36887E-02  7550   0.783E-01    0.147E-01
DAV:   3    -0.141090569689E+03    0.48800E-03   -0.85984E-04  7825   0.185E-01    0.890E-02
DAV:   4    -0.141090312819E+03    0.25687E-03   -0.63604E-04  7660   0.159E-01    0.286E-02
DAV:   5    -0.141090282471E+03    0.30348E-04   -0.28449E-04  7650   0.939E-02    0.212E-02
DAV:   6    -0.141090266429E+03    0.16042E-04   -0.98616E-05  7370   0.524E-02    0.131E-02
DAV:   7    -0.141090247109E+03    0.19320E-04   -0.82644E-06  4795   0.335E-02    0.881E-03
DAV:   8    -0.141090232382E+03    0.14728E-04   -0.61621E-06  4710   0.314E-02    0.573E-03
DAV:   9    -0.141090198049E+03    0.34333E-04   -0.22505E-05  6365   0.840E-02    0.532E-03
DAV:  10    -0.141090176210E+03    0.21839E-04   -0.27653E-05  6390   0.680E-02    0.663E-03
DAV:  11    -0.141090149051E+03    0.27159E-04   -0.35276E-05  7060   0.107E-01    0.553E-03
DAV:  12    -0.141090135990E+03    0.13062E-04   -0.44928E-05  7160   0.102E-01    0.612E-03
DAV:  13    -0.141090137896E+03   -0.19064E-05   -0.82259E-05  6870   0.531E-02
  27 F= -.14109014E+03 E0= -.14108742E+03  d E =-.146246E-01
       N       E                     dE             d eps       ncg     rms          rms(c)
DAV:   1    -0.141098171171E+03   -0.80352E-02   -0.27569E+00  6400   0.745E+00    0.362E-01
DAV:   2    -0.141103055455E+03   -0.48843E-02   -0.67126E-02  7480   0.105E+00    0.186E-01
DAV:   3    -0.141102365648E+03    0.68981E-03   -0.11137E-03  7640   0.174E-01    0.106E-01
DAV:   4    -0.141101998673E+03    0.36697E-03   -0.71980E-04  7670   0.171E-01    0.307E-02
DAV:   5    -0.141101969799E+03    0.28875E-04   -0.42208E-04  7570   0.105E-01    0.252E-02
DAV:   6    -0.141101954498E+03    0.15301E-04   -0.98199E-05  7460   0.523E-02    0.180E-02
DAV:   7    -0.141101936455E+03    0.18044E-04   -0.71909E-06  4910   0.288E-02    0.113E-02
DAV:   8    -0.141101906799E+03    0.29655E-04   -0.21433E-05  5845   0.667E-02    0.517E-03
DAV:   9    -0.141101894212E+03    0.12587E-04   -0.30378E-05  6720   0.612E-02    0.437E-03
DAV:  10    -0.141101888551E+03    0.56615E-05   -0.20103E-05  5660   0.482E-02
  28 F= -.14110189E+03 E0= -.14109949E+03  d E =-.117507E-01
       N       E                     dE             d eps       ncg     rms          rms(c)
DAV:   1    -0.141099151532E+03    0.27427E-02   -0.61787E+00  6425   0.112E+01    0.536E-01
DAV:   2    -0.141109987887E+03   -0.10836E-01   -0.14978E-01  7445   0.158E+00    0.279E-01
DAV:   3    -0.141108405294E+03    0.15826E-02   -0.23478E-03  7650   0.259E-01    0.160E-01
DAV:   4    -0.141107530565E+03    0.87473E-03   -0.17985E-03  7650   0.277E-01    0.442E-02
DAV:   5    -0.141107472923E+03    0.57641E-04   -0.11129E-03  7510   0.161E-01    0.391E-02
DAV:   6    -0.141107424884E+03    0.48039E-04   -0.16780E-04  7600   0.762E-02    0.251E-02
DAV:   7    -0.141107370641E+03    0.54243E-04   -0.15744E-05  5230   0.583E-02    0.137E-02
DAV:   8    -0.141107304706E+03    0.65935E-04   -0.56117E-05  7675   0.101E-01    0.816E-03
DAV:   9    -0.141107270376E+03    0.34330E-04   -0.61545E-05  8100   0.963E-02    0.670E-03
DAV:  10    -0.141107252346E+03    0.18030E-04   -0.46688E-05  6965   0.778E-02    0.691E-03
DAV:  11    -0.141107241470E+03    0.10877E-04   -0.30394E-05  6135   0.401E-02    0.425E-03
DAV:  12    -0.141107225952E+03    0.15517E-04   -0.57978E-06  4735   0.526E-02    0.532E-03
DAV:  13    -0.141107219660E+03    0.62922E-05   -0.11797E-05  5020   0.332E-02
  29 F= -.14110722E+03 E0= -.14110501E+03  d E =-.170818E-01
       N       E                     dE             d eps       ncg     rms          rms(c)
DAV:   1    -0.141111102382E+03   -0.38764E-02   -0.15129E+00  6370   0.545E+00    0.230E-01
DAV:   2    -0.141114113485E+03   -0.30111E-02   -0.37301E-02  7170   0.758E-01    0.109E-01
DAV:   3    -0.141113894656E+03    0.21883E-03   -0.57382E-04  7580   0.111E-01    0.662E-02
DAV:   4    -0.141113785858E+03    0.10880E-03   -0.28403E-04  7600   0.950E-02    0.239E-02
DAV:   5    -0.141113771240E+03    0.14618E-04   -0.15056E-04  7500   0.568E-02    0.145E-02
DAV:   6    -0.141113765513E+03    0.57266E-05   -0.26772E-05  6080   0.206E-02
  30 F= -.14111377E+03 E0= -.14111164E+03  d E =-.654585E-02
       N       E                     dE             d eps       ncg     rms          rms(c)
DAV:   1    -0.141104044154E+03    0.97271E-02   -0.13606E+01  6370   0.164E+01    0.706E-01
DAV:   2    -0.141131895023E+03   -0.27851E-01   -0.34657E-01  7160   0.230E+00    0.321E-01
DAV:   3    -0.141129984513E+03    0.19105E-02   -0.45585E-03  7580   0.317E-01    0.202E-01
DAV:   4    -0.141128966365E+03    0.10181E-02   -0.32846E-03  7605   0.318E-01    0.663E-02
DAV:   5    -0.141128898186E+03    0.68179E-04   -0.14061E-03  7520   0.165E-01    0.489E-02
DAV:   6    -0.141128848123E+03    0.50063E-04   -0.24224E-04  7500   0.628E-02    0.269E-02
DAV:   7    -0.141128790600E+03    0.57522E-04   -0.69218E-05  7560   0.470E-02    0.174E-02
DAV:   8    -0.141128741586E+03    0.49015E-04   -0.15860E-05  5560   0.512E-02    0.143E-02
DAV:   9    -0.141128673462E+03    0.68124E-04   -0.76073E-05  8180   0.920E-02    0.917E-03
DAV:  10    -0.141128617024E+03    0.56437E-04   -0.50408E-05  7140   0.869E-02    0.875E-03
DAV:  11    -0.141128553717E+03    0.63308E-04   -0.75882E-05  7790   0.146E-01    0.119E-02
DAV:  12    -0.141128545252E+03    0.84642E-05   -0.12378E-04  7290   0.744E-02    0.842E-03
DAV:  13    -0.141128537285E+03    0.79677E-05   -0.35497E-05  6590   0.360E-02
  31 F= -.14112854E+03 E0= -.14112671E+03  d E =-.213176E-01
       N       E                     dE             d eps       ncg     rms          rms(c)
DAV:   1    -0.141029509286E+03    0.99036E-01   -0.54273E+01  6370   0.327E+01    0.148E+00
DAV:   2    -0.141146112640E+03   -0.11660E+00   -0.14814E+00  7180   0.475E+00    0.660E-01
DAV:   3    -0.141138199029E+03    0.79136E-02   -0.17718E-02  7620   0.645E-01    0.423E-01
DAV:   4    -0.141134045032E+03    0.41540E-02   -0.18402E-02  7580   0.727E-01    0.145E-01
DAV:   5    -0.141133947017E+03    0.98014E-04   -0.54835E-03  7560   0.329E-01    0.113E-01
DAV:   6    -0.141133766535E+03    0.18048E-03   -0.14459E-03  7410   0.156E-01    0.512E-02
DAV:   7    -0.141133650033E+03    0.11650E-03   -0.15040E-04  7580   0.830E-02    0.302E-02
DAV:   8    -0.141133512409E+03    0.13762E-03   -0.88328E-05  8180   0.959E-02    0.188E-02
DAV:   9    -0.141133408438E+03    0.10397E-03   -0.88549E-05  8860   0.921E-02    0.156E-02
DAV:  10    -0.141133291067E+03    0.11737E-03   -0.48901E-05  7145   0.108E-01    0.970E-03
DAV:  11    -0.141133120026E+03    0.17104E-03   -0.25074E-04  9790   0.245E-01    0.114E-02
DAV:  12    -0.141133104331E+03    0.15696E-04   -0.26414E-04  7605   0.104E-01    0.115E-02
DAV:  13    -0.141133069952E+03    0.34379E-04   -0.46802E-05  7375   0.843E-02    0.740E-03
DAV:  14    -0.141133036314E+03    0.33637E-04   -0.34987E-05  7055   0.112E-01    0.609E-03
DAV:  15    -0.141133015814E+03    0.20501E-04   -0.56031E-05  8005   0.125E-01    0.930E-03
DAV:  16    -0.141133019755E+03   -0.39412E-05   -0.77333E-05  6640   0.468E-02
  32 F= -.14113302E+03 E0= -.14113113E+03  d E =-.258001E-01
       N       E                     dE             d eps       ncg     rms          rms(c)
DAV:   1    -0.141120616468E+03    0.12399E-01   -0.83942E+00  6380   0.128E+01    0.514E-01
DAV:   2    -0.141137540407E+03   -0.16924E-01   -0.20035E-01  7200   0.176E+00    0.269E-01
DAV:   3    -0.141136228455E+03    0.13120E-02   -0.32017E-03  7555   0.266E-01    0.150E-01
DAV:   4    -0.141135712719E+03    0.51574E-03   -0.11184E-03  7630   0.186E-01    0.582E-02
DAV:   5    -0.141135651172E+03    0.61548E-04   -0.68661E-04  7560   0.130E-01    0.286E-02
DAV:   6    -0.141135640103E+03    0.11069E-04   -0.12681E-04  7580   0.468E-02    0.222E-02
DAV:   7    -0.141135622761E+03    0.17342E-04   -0.27328E-05  5990   0.223E-02    0.115E-02
DAV:   8    -0.141135604902E+03    0.17859E-04   -0.54811E-06  5040   0.314E-02    0.653E-03
DAV:   9    -0.141135587186E+03    0.17716E-04   -0.20323E-05  6070   0.473E-02    0.538E-03
DAV:  10    -0.141135576371E+03    0.10815E-04   -0.17344E-05  5590   0.377E-02    0.576E-03
DAV:  11    -0.141135563182E+03    0.13189E-04   -0.96672E-06  5120   0.473E-02    0.296E-03
DAV:  12    -0.141135558078E+03    0.51036E-05   -0.15283E-05  5820   0.379E-02
  33 F= -.14113556E+03 E0= -.14113372E+03  d E =-.283384E-01
       N       E                     dE             d eps       ncg     rms          rms(c)
DAV:   1    -0.141146915606E+03   -0.11352E-01   -0.60040E+00  6370   0.107E+01    0.368E-01
DAV:   2    -0.141159290765E+03   -0.12375E-01   -0.14960E-01  7470   0.153E+00    0.197E-01
DAV:   3    -0.141158452120E+03    0.83864E-03   -0.28512E-03  7730   0.265E-01    0.141E-01
DAV:   4    -0.141157828974E+03    0.62315E-03   -0.13660E-03  7680   0.202E-01    0.612E-02
DAV:   5    -0.141157575166E+03    0.25381E-03   -0.51433E-04  8060   0.196E-01    0.354E-02
DAV:   6    -0.141157516437E+03    0.58730E-04   -0.52942E-04  7650   0.153E-01    0.226E-02
DAV:   7    -0.141157502660E+03    0.13777E-04   -0.17471E-04  7410   0.624E-02    0.255E-02
DAV:   8    -0.141157457385E+03    0.45275E-04   -0.41877E-05  6890   0.411E-02    0.110E-02
DAV:   9    -0.141157393108E+03    0.64277E-04   -0.57647E-05  7315   0.934E-02    0.175E-02
DAV:  10    -0.141157370317E+03    0.22791E-04   -0.34758E-05  6740   0.503E-02    0.154E-02
DAV:  11    -0.141157306106E+03    0.64211E-04   -0.26174E-05  6055   0.135E-01    0.903E-03
DAV:  12    -0.141157266384E+03    0.39722E-04   -0.86889E-05  8390   0.121E-01    0.643E-03
DAV:  13    -0.141157238330E+03    0.28053E-04   -0.52307E-05  7460   0.103E-01    0.488E-03
DAV:  14    -0.141157217805E+03    0.20526E-04   -0.30980E-05  6430   0.917E-02    0.899E-03
DAV:  15    -0.141157211343E+03    0.64614E-05   -0.42232E-05  6970   0.657E-02
  34 F= -.14115721E+03 E0= -.14115546E+03  d E =-.216533E-01
       N       E                     dE             d eps       ncg     rms          rms(c)
DAV:   1    -0.141147127980E+03    0.10090E-01   -0.10975E+01  6370   0.145E+01    0.508E-01
DAV:   2    -0.141170801226E+03   -0.23673E-01   -0.28331E-01  7510   0.209E+00    0.271E-01
DAV:   3    -0.141169285248E+03    0.15160E-02   -0.53221E-03  7720   0.359E-01    0.195E-01
DAV:   4    -0.141168173406E+03    0.11118E-02   -0.26806E-03  7620   0.267E-01    0.852E-02
DAV:   5    -0.141167742811E+03    0.43059E-03   -0.91584E-04  7830   0.251E-01    0.483E-02
DAV:   6    -0.141167645783E+03    0.97028E-04   -0.92839E-04  7660   0.199E-01    0.291E-02
DAV:   7    -0.141167630344E+03    0.15439E-04   -0.28943E-04  7380   0.759E-02    0.325E-02
DAV:   8    -0.141167570563E+03    0.59781E-04   -0.46728E-05  7070   0.410E-02    0.158E-02
DAV:   9    -0.141167466305E+03    0.10426E-03   -0.13951E-04  7600   0.117E-01    0.258E-02
DAV:  10    -0.141167428379E+03    0.37926E-04   -0.60424E-05  7020   0.629E-02    0.207E-02
DAV:  11    -0.141167333577E+03    0.94802E-04   -0.74801E-05  9135   0.155E-01    0.101E-02
DAV:  12    -0.141167280063E+03    0.53514E-04   -0.10031E-04  8160   0.120E-01    0.971E-03
DAV:  13    -0.141167222006E+03    0.58057E-04   -0.51425E-05  7930   0.137E-01    0.648E-03
DAV:  14    -0.141167194474E+03    0.27533E-04   -0.80715E-05  7450   0.110E-01    0.125E-02
DAV:  15    -0.141167185698E+03    0.87754E-05   -0.79002E-05  7020   0.630E-02
  35 F= -.14116719E+03 E0= -.14116550E+03  d E =-.316276E-01
       N       E                     dE             d eps       ncg     rms          rms(c)
DAV:   1    -0.141173487768E+03   -0.62933E-02   -0.77987E+00  6440   0.124E+01    0.460E-01
DAV:   2    -0.141188362002E+03   -0.14874E-01   -0.17640E-01  7335   0.170E+00    0.250E-01
DAV:   3    -0.141186933953E+03    0.14280E-02   -0.18188E-03  7780   0.243E-01    0.157E-01
DAV:   4    -0.141185970601E+03    0.96335E-03   -0.21867E-03  7665   0.318E-01    0.389E-02
DAV:   5    -0.141185985582E+03   -0.14980E-04   -0.13011E-03  7490   0.169E-01    0.438E-02
DAV:   6    -0.141185944327E+03    0.41255E-04   -0.11747E-04  7560   0.531E-02    0.281E-02
DAV:   7    -0.141185881179E+03    0.63148E-04   -0.35551E-05  7100   0.543E-02    0.134E-02
DAV:   8    -0.141185820173E+03    0.61006E-04   -0.39528E-05  7240   0.826E-02    0.120E-02
DAV:   9    -0.141185762154E+03    0.58019E-04   -0.10666E-04  9385   0.140E-01    0.170E-02
DAV:  10    -0.141185742923E+03    0.19231E-04   -0.87955E-05  7340   0.718E-02    0.198E-02
DAV:  11    -0.141185736070E+03    0.68527E-05   -0.31985E-05  5760   0.245E-02
  36 F= -.14118574E+03 E0= -.14118402E+03  d E =-.185504E-01
       N       E                     dE             d eps       ncg     rms          rms(c)
DAV:   1    -0.141170466867E+03    0.15276E-01   -0.14363E+01  6410   0.169E+01    0.623E-01
DAV:   2    -0.141197566208E+03   -0.27099E-01   -0.32272E-01  7355   0.232E+00    0.340E-01
DAV:   3    -0.141194915910E+03    0.26503E-02   -0.35373E-03  7760   0.344E-01    0.213E-01
DAV:   4    -0.141193086634E+03    0.18293E-02   -0.37169E-03  7715   0.434E-01    0.538E-02
DAV:   5    -0.141193060370E+03    0.26265E-04   -0.24655E-03  7500   0.247E-01    0.579E-02
DAV:   6    -0.141192964282E+03    0.96087E-04   -0.28118E-04  7585   0.855E-02    0.383E-02
DAV:   7    -0.141192813814E+03    0.15047E-03   -0.70392E-05  7580   0.798E-02    0.187E-02
DAV:   8    -0.141192642568E+03    0.17125E-03   -0.73069E-05  8745   0.128E-01    0.170E-02
DAV:   9    -0.141192416989E+03    0.22558E-03   -0.27316E-04 10810   0.268E-01    0.286E-02
DAV:  10    -0.141192322465E+03    0.94524E-04   -0.22524E-04  7695   0.143E-01    0.294E-02
DAV:  11    -0.141192255895E+03    0.66570E-04   -0.11632E-04  7380   0.716E-02    0.175E-02
DAV:  12    -0.141192089375E+03    0.16652E-03   -0.22526E-04  8630   0.246E-01    0.237E-02
DAV:  13    -0.141192044224E+03    0.45151E-04   -0.16428E-04  8180   0.152E-01    0.249E-02
DAV:  14    -0.141192035895E+03    0.83288E-05   -0.38054E-04  7380   0.963E-02    0.268E-02
DAV:  15    -0.141192006660E+03    0.29235E-04   -0.45925E-05  7600   0.669E-02    0.125E-02
DAV:  16    -0.141191998708E+03    0.79525E-05   -0.32684E-05  6740   0.492E-02
  37 F= -.14119200E+03 E0= -.14119017E+03  d E =-.248130E-01
       N       E                     dE             d eps       ncg     rms          rms(c)
DAV:   1    -0.141201386616E+03   -0.93800E-02   -0.93415E+00  6390   0.132E+01    0.743E-01
DAV:   2    -0.141211376215E+03   -0.99896E-02   -0.22773E-01  7440   0.191E+00    0.256E-01
DAV:   3    -0.141209609859E+03    0.17664E-02   -0.51761E-03  7680   0.345E-01    0.144E-01
DAV:   4    -0.141208980329E+03    0.62953E-03   -0.24345E-03  7380   0.267E-01    0.594E-02
DAV:   5    -0.141208904507E+03    0.75822E-04   -0.78126E-04  7620   0.140E-01    0.415E-02
DAV:   6    -0.141208871801E+03    0.32706E-04   -0.15661E-04  7545   0.754E-02    0.195E-02
DAV:   7    -0.141208854523E+03    0.17278E-04   -0.48294E-05  7285   0.472E-02    0.134E-02
DAV:   8    -0.141208840014E+03    0.14509E-04   -0.11378E-05  5080   0.400E-02    0.860E-03
DAV:   9    -0.141208828769E+03    0.11246E-04   -0.28353E-05  6330   0.424E-02    0.646E-03
DAV:  10    -0.141208819840E+03    0.89286E-05   -0.60261E-06  4710   0.344E-02
  38 F= -.14120882E+03 E0= -.14120694E+03  d E =-.168211E-01
       N       E                     dE             d eps       ncg     rms          rms(c)
DAV:   1    -0.141208922394E+03   -0.93625E-04   -0.37120E+00  6385   0.838E+00    0.465E-01
DAV:   2    -0.141212869467E+03   -0.39471E-02   -0.89053E-02  7440   0.120E+00    0.162E-01
DAV:   3    -0.141212164012E+03    0.70546E-03   -0.21346E-03  7710   0.219E-01    0.894E-02
DAV:   4    -0.141211918840E+03    0.24517E-03   -0.90234E-04  7365   0.159E-01    0.384E-02
DAV:   5    -0.141211875325E+03    0.43515E-04   -0.27235E-04  7690   0.869E-02    0.250E-02
DAV:   6    -0.141211854050E+03    0.21276E-04   -0.72247E-05  7495   0.644E-02    0.117E-02
DAV:   7    -0.141211843977E+03    0.10073E-04   -0.30817E-05  6570   0.380E-02    0.111E-02
DAV:   8    -0.141211832397E+03    0.11581E-04   -0.92056E-06  4655   0.276E-02    0.489E-03
DAV:   9    -0.141211818275E+03    0.14122E-04   -0.98904E-06  4910   0.412E-02    0.552E-03
DAV:  10    -0.141211803450E+03    0.14825E-04   -0.82390E-06  5245   0.514E-02    0.485E-03
DAV:  11    -0.141211789011E+03    0.14439E-04   -0.14941E-05  5760   0.659E-02    0.336E-03
DAV:  12    -0.141211771643E+03    0.17368E-04   -0.18792E-05  6030   0.114E-01    0.478E-03
DAV:  13    -0.141211772605E+03   -0.96211E-06   -0.58613E-05  6800   0.474E-02
  39 F= -.14121177E+03 E0= -.14120970E+03  d E =-.197739E-01
       N       E                     dE             d eps       ncg     rms          rms(c)
DAV:   1    -0.141221990422E+03   -0.10219E-01   -0.55761E+00  6465   0.107E+01    0.582E-01
DAV:   2    -0.141229895048E+03   -0.79046E-02   -0.14255E-01  7520   0.156E+00    0.316E-01
DAV:   3    -0.141227884954E+03    0.20101E-02   -0.47561E-03  7685   0.348E-01    0.186E-01
DAV:   4    -0.141226918562E+03    0.96639E-03   -0.23137E-03  7555   0.242E-01    0.573E-02
DAV:   5    -0.141226791317E+03    0.12724E-03   -0.69483E-04  7575   0.146E-01    0.344E-02
DAV:   6    -0.141226756644E+03    0.34674E-04   -0.33067E-04  7720   0.113E-01    0.238E-02
DAV:   7    -0.141226745687E+03    0.10956E-04   -0.77281E-05  7035   0.422E-02    0.233E-02
DAV:   8    -0.141226717455E+03    0.28232E-04   -0.30437E-05  6475   0.309E-02    0.865E-03
DAV:   9    -0.141226698601E+03    0.18854E-04   -0.14569E-05  4945   0.348E-02    0.637E-03
DAV:  10    -0.141226678269E+03    0.20332E-04   -0.70783E-06  5160   0.459E-02    0.554E-03
DAV:  11    -0.141226647720E+03    0.30549E-04   -0.30458E-05  6880   0.904E-02    0.677E-03
DAV:  12    -0.141226621000E+03    0.26720E-04   -0.35358E-05  6810   0.107E-01    0.934E-03
DAV:  13    -0.141226611948E+03    0.90526E-05   -0.51103E-05  7180   0.641E-02
  40 F= -.14122661E+03 E0= -.14122422E+03  d E =-.148393E-01
       N       E                     dE             d eps       ncg     rms          rms(c)
DAV:   1    -0.141226930139E+03   -0.30914E-03   -0.39651E-01  6535   0.284E+00    0.158E-01
DAV:   2    -0.141227505019E+03   -0.57488E-03   -0.10382E-02  7520   0.420E-01    0.839E-02
DAV:   3    -0.141227364487E+03    0.14053E-03   -0.32849E-04  7675   0.910E-02    0.500E-02
DAV:   4    -0.141227296454E+03    0.68034E-04   -0.18072E-04  7535   0.668E-02    0.156E-02
DAV:   5    -0.141227287659E+03    0.87946E-05   -0.49377E-05  7295   0.383E-02    0.102E-02
DAV:   6    -0.141227284647E+03    0.30123E-05   -0.30204E-05  6280   0.341E-02
  41 F= -.14122728E+03 E0= -.14122485E+03  d E =-.155120E-01
       N       E                     dE             d eps       ncg     rms          rms(c)
DAV:   1    -0.141229110642E+03   -0.18230E-02   -0.35866E+00  6450   0.841E+00    0.385E-01
DAV:   2    -0.141234840957E+03   -0.57303E-02   -0.88257E-02  7465   0.123E+00    0.173E-01
DAV:   3    -0.141234149651E+03    0.69131E-03   -0.14764E-03  7710   0.196E-01    0.103E-01
DAV:   4    -0.141233795531E+03    0.35412E-03   -0.10489E-03  7575   0.176E-01    0.368E-02
DAV:   5    -0.141233732999E+03    0.62532E-04   -0.29764E-04  7585   0.103E-01    0.258E-02
DAV:   6    -0.141233689552E+03    0.43447E-04   -0.15762E-04  7430   0.801E-02    0.156E-02
DAV:   7    -0.141233655033E+03    0.34519E-04   -0.24287E-05  6020   0.463E-02    0.125E-02
DAV:   8    -0.141233595872E+03    0.59161E-04   -0.25970E-05  6115   0.707E-02    0.685E-03
DAV:   9    -0.141233501930E+03    0.93942E-04   -0.60652E-05  8430   0.136E-01    0.180E-02
DAV:  10    -0.141233409840E+03    0.92090E-04   -0.74881E-05  8595   0.166E-01    0.139E-02
DAV:  11    -0.141233337629E+03    0.72211E-04   -0.16563E-04  9780   0.234E-01    0.744E-03
DAV:  12    -0.141233345522E+03   -0.78936E-05   -0.21767E-04  7260   0.101E-01    0.682E-03
DAV:  13    -0.141233349879E+03   -0.43572E-05   -0.66558E-05  6570   0.398E-02
  42 F= -.14123335E+03 E0= -.14123093E+03  d E =-.606523E-02
       N       E                     dE             d eps       ncg     rms          rms(c)
DAV:   1    -0.141233377458E+03   -0.31935E-04   -0.80721E-02  6580   0.126E+00    0.597E-02
DAV:   2    -0.141233502346E+03   -0.12489E-03   -0.20533E-03  7475   0.187E-01    0.259E-02
DAV:   3    -0.141233486901E+03    0.15445E-04   -0.30202E-05  6225   0.284E-02    0.160E-02
DAV:   4    -0.141233477148E+03    0.97524E-05   -0.25538E-05  5865   0.301E-02    0.495E-03
DAV:   5    -0.141233475494E+03    0.16545E-05   -0.93985E-06  3935   0.177E-02    0.409E-03
DAV:   6    -0.141233474445E+03    0.10488E-05   -0.31682E-06  3865   0.100E-02
  43 F= -.14123347E+03 E0= -.14123106E+03  d E =-.618980E-02
       N       E                     dE             d eps       ncg     rms          rms(c)
DAV:   1    -0.141236478715E+03   -0.30032E-02   -0.66293E-01  6405   0.364E+00    0.288E-01
DAV:   2    -0.141236392019E+03    0.86695E-04   -0.18455E-02  7580   0.561E-01    0.104E-01
DAV:   3    -0.141236210735E+03    0.18128E-03   -0.68402E-04  7710   0.117E-01    0.499E-02
DAV:   4    -0.141236158919E+03    0.51817E-04   -0.22055E-04  7625   0.660E-02    0.217E-02
DAV:   5    -0.141236147695E+03    0.11224E-04   -0.31497E-05  6050   0.350E-02    0.105E-02
DAV:   6    -0.141236146623E+03    0.10717E-05   -0.29188E-05  5650   0.325E-02
  44 F= -.14123615E+03 E0= -.14123371E+03  d E =-.267218E-02
       N       E                     dE             d eps       ncg     rms          rms(c)
DAV:   1    -0.141236364266E+03   -0.21657E-03   -0.72833E-02  6435   0.121E+00    0.948E-02
DAV:   2    -0.141236356587E+03    0.76790E-05   -0.19992E-03  7590   0.185E-01    0.347E-02
DAV:   3    -0.141236333915E+03    0.22672E-04   -0.79509E-05  7680   0.406E-02    0.163E-02
DAV:   4    -0.141236325256E+03    0.86593E-05   -0.17852E-05  4715   0.227E-02    0.726E-03
DAV:   5    -0.141236321760E+03    0.34959E-05   -0.38880E-06  4160   0.191E-02    0.396E-03
DAV:   6    -0.141236319392E+03    0.23678E-05   -0.36787E-06  4300   0.203E-02
  45 F= -.14123632E+03 E0= -.14123387E+03  d E =-.284495E-02
       N       E                     dE             d eps       ncg     rms          rms(c)
DAV:   1    -0.141236960191E+03   -0.63843E-03   -0.41319E-01  6370   0.284E+00    0.108E-01
DAV:   2    -0.141237665457E+03   -0.70527E-03   -0.94646E-03  7620   0.409E-01    0.599E-02
DAV:   3    -0.141237567178E+03    0.98279E-04   -0.18996E-04  7685   0.803E-02    0.405E-02
DAV:   4    -0.141237476463E+03    0.90715E-04   -0.16476E-04  7325   0.825E-02    0.162E-02
DAV:   5    -0.141237452111E+03    0.24351E-04   -0.80816E-05  7580   0.580E-02    0.152E-02
DAV:   6    -0.141237439900E+03    0.12211E-04   -0.42898E-05  6650   0.351E-02    0.815E-03
DAV:   7    -0.141237409487E+03    0.30413E-04   -0.16653E-05  5560   0.506E-02    0.783E-03
DAV:   8    -0.141237392327E+03    0.17160E-04   -0.22896E-05  6250   0.441E-02    0.126E-02
DAV:   9    -0.141237361711E+03    0.30616E-04   -0.24989E-05  6080   0.697E-02    0.850E-03
DAV:  10    -0.141237333213E+03    0.28498E-04   -0.51316E-05  7660   0.997E-02    0.113E-02
DAV:  11    -0.141237326142E+03    0.70715E-05   -0.47042E-05  6710   0.444E-02
  46 F= -.14123733E+03 E0= -.14123485E+03  d E =-.100675E-02
       N       E                     dE             d eps       ncg     rms          rms(c)
DAV:   1    -0.141237320439E+03    0.12774E-04   -0.77826E-03  6760   0.392E-01    0.178E-02
DAV:   2    -0.141237335050E+03   -0.14611E-04   -0.22864E-04  7520   0.660E-02    0.108E-02
DAV:   3    -0.141237332590E+03    0.24609E-05   -0.97623E-06  4000   0.153E-02    0.697E-03
DAV:   4    -0.141237330005E+03    0.25850E-05   -0.40984E-06  3875   0.107E-02    0.295E-03
DAV:   5    -0.141237328086E+03    0.19190E-05   -0.10258E-06  4145   0.116E-02    0.231E-03
DAV:   6    -0.141237325824E+03    0.22612E-05   -0.95040E-07  4045   0.164E-02
  47 F= -.14123733E+03 E0= -.14123485E+03  d E =-.100643E-02
       N       E                     dE             d eps       ncg     rms          rms(c)
DAV:   1    -0.141237530905E+03   -0.20282E-03   -0.50827E-01  6450   0.314E+00    0.107E-01
DAV:   2    -0.141238524812E+03   -0.99391E-03   -0.11578E-02  7395   0.443E-01    0.535E-02
DAV:   3    -0.141238460535E+03    0.64277E-04   -0.97107E-05  7710   0.521E-02    0.342E-02
DAV:   4    -0.141238420222E+03    0.40313E-04   -0.14863E-04  7480   0.685E-02    0.100E-02
DAV:   5    -0.141238421724E+03   -0.15020E-05   -0.47603E-05  6325   0.299E-02    0.101E-02
DAV:   6    -0.141238419726E+03    0.19985E-05   -0.57783E-06  3865   0.113E-02
  48 F= -.14123842E+03 E0= -.14123593E+03  d E =-.109390E-02
       N       E                     dE             d eps       ncg     rms          rms(c)
DAV:   1    -0.141236177732E+03    0.22440E-02   -0.17011E+00  6400   0.575E+00    0.193E-01
DAV:   2    -0.141239484030E+03   -0.33063E-02   -0.38389E-02  7390   0.807E-01    0.978E-02
DAV:   3    -0.141239255984E+03    0.22805E-03   -0.31290E-04  7710   0.969E-02    0.626E-02
DAV:   4    -0.141239084302E+03    0.17168E-03   -0.44497E-04  7720   0.134E-01    0.173E-02
DAV:   5    -0.141239078300E+03    0.60016E-05   -0.19817E-04  7530   0.654E-02    0.183E-02
DAV:   6    -0.141239062139E+03    0.16162E-04   -0.24543E-05  5445   0.256E-02    0.955E-03
DAV:   7    -0.141239026629E+03    0.35510E-04   -0.98824E-06  5120   0.432E-02    0.684E-03
DAV:   8    -0.141238991881E+03    0.34748E-04   -0.11779E-05  5320   0.532E-02    0.115E-02
DAV:   9    -0.141238917158E+03    0.74724E-04   -0.53822E-05  8060   0.148E-01    0.112E-02
DAV:  10    -0.141238877980E+03    0.39178E-04   -0.10262E-04  8630   0.130E-01    0.134E-02
DAV:  11    -0.141238856268E+03    0.21712E-04   -0.74690E-05  7230   0.100E-01    0.121E-02
DAV:  12    -0.141238847934E+03    0.83345E-05   -0.29544E-05  6435   0.959E-02
  49 F= -.14123885E+03 E0= -.14123633E+03  d E =-.152211E-02
       N       E                     dE             d eps       ncg     rms          rms(c)
DAV:   1    -0.141238960609E+03   -0.10434E-03   -0.31296E-01  6455   0.247E+00    0.103E-01
DAV:   2    -0.141239497438E+03   -0.53683E-03   -0.70767E-03  7560   0.346E-01    0.452E-02
DAV:   3    -0.141239457863E+03    0.39575E-04   -0.11191E-04  7700   0.489E-02    0.282E-02
DAV:   4    -0.141239437831E+03    0.20032E-04   -0.73967E-05  7370   0.442E-02    0.105E-02
DAV:   5    -0.141239436858E+03    0.97362E-06   -0.17862E-05  4550   0.226E-02    0.788E-03
DAV:   6    -0.141239436234E+03    0.62379E-06   -0.99954E-06  4105   0.179E-02
  50 F= -.14123944E+03 E0= -.14123692E+03  d E =-.588300E-03
       N       E                     dE             d eps       ncg     rms          rms(c)
DAV:   1    -0.141239078073E+03    0.35879E-03   -0.39297E-01  6380   0.276E+00    0.116E-01
DAV:   2    -0.141239764261E+03   -0.68619E-03   -0.89917E-03  7550   0.390E-01    0.512E-02
DAV:   3    -0.141239710266E+03    0.53995E-04   -0.12626E-04  7705   0.538E-02    0.316E-02
DAV:   4    -0.141239683159E+03    0.27107E-04   -0.10617E-04  7410   0.525E-02    0.117E-02
DAV:   5    -0.141239681824E+03    0.13350E-05   -0.25142E-05  5650   0.271E-02    0.926E-03
DAV:   6    -0.141239680606E+03    0.12181E-05   -0.14097E-05  4115   0.226E-02
  51 F= -.14123968E+03 E0= -.14123717E+03  d E =-.832672E-03
       N       E                     dE             d eps       ncg     rms          rms(c)
DAV:   1    -0.141240322837E+03   -0.64101E-03   -0.32731E-02  6470   0.802E-01    0.411E-02
DAV:   2    -0.141240351515E+03   -0.28679E-04   -0.81503E-04  7635   0.123E-01    0.217E-02
DAV:   3    -0.141240336174E+03    0.15341E-04   -0.21696E-05  5450   0.292E-02    0.134E-02
DAV:   4    -0.141240321044E+03    0.15131E-04   -0.17625E-05  5390   0.321E-02    0.510E-03
DAV:   5    -0.141240314822E+03    0.62221E-05   -0.88023E-06  4395   0.236E-02    0.437E-03
DAV:   6    -0.141240302585E+03    0.12236E-04   -0.80777E-06  5205   0.396E-02    0.428E-03
DAV:   7    -0.141240294079E+03    0.85065E-05   -0.95110E-06  4700   0.329E-02
  52 F= -.14124029E+03 E0= -.14123780E+03  d E =-.613473E-03
       N       E                     dE             d eps       ncg     rms          rms(c)
DAV:   1    -0.141240596262E+03   -0.29368E-03   -0.55704E-02  6590   0.105E+00    0.534E-02
DAV:   2    -0.141240635176E+03   -0.38914E-04   -0.13755E-03  7675   0.161E-01    0.269E-02
DAV:   3    -0.141240603706E+03    0.31470E-04   -0.44083E-05  7510   0.401E-02    0.168E-02
DAV:   4    -0.141240568101E+03    0.35605E-04   -0.21309E-05  6270   0.421E-02    0.732E-03
DAV:   5    -0.141240544679E+03    0.23421E-04   -0.11064E-05  5030   0.403E-02    0.616E-03
DAV:   6    -0.141240498860E+03    0.45820E-04   -0.36175E-05  7115   0.892E-02    0.796E-03
DAV:   7    -0.141240464717E+03    0.34143E-04   -0.31286E-05  6390   0.738E-02    0.696E-03
DAV:   8    -0.141240419681E+03    0.45036E-04   -0.45437E-05  7160   0.131E-01    0.654E-03
DAV:   9    -0.141240405737E+03    0.13943E-04   -0.70133E-05  7910   0.109E-01    0.603E-03
DAV:  10    -0.141240412200E+03   -0.64627E-05   -0.93968E-05  6440   0.386E-02
  53 F= -.14124041E+03 E0= -.14123795E+03  d E =-.731594E-03
       N       E                     dE             d eps       ncg     rms          rms(c)
DAV:   1    -0.141240444779E+03   -0.39042E-04   -0.36279E-03  6760   0.267E-01    0.174E-02
DAV:   2    -0.141240445105E+03   -0.32556E-06   -0.10657E-04  7555   0.483E-02    0.753E-03
DAV:   3    -0.141240443294E+03    0.18105E-05   -0.72599E-06  4230   0.151E-02    0.514E-03
DAV:   4    -0.141240441391E+03    0.19036E-05   -0.25339E-06  4400   0.113E-02    0.240E-03
DAV:   5    -0.141240440082E+03    0.13085E-05   -0.14589E-06  4225   0.121E-02    0.198E-03
DAV:   6    -0.141240439537E+03    0.54562E-06   -0.20791E-06  3950   0.102E-02
  54 F= -.14124044E+03 E0= -.14123797E+03  d E =-.758930E-03
       N       E                     dE             d eps       ncg     rms          rms(c)
DAV:   1    -0.141240677721E+03   -0.23764E-03   -0.11385E-01  6415   0.151E+00    0.544E-02
DAV:   2    -0.141240905892E+03   -0.22817E-03   -0.27914E-03  7370   0.215E-01    0.290E-02
DAV:   3    -0.141240885573E+03    0.20319E-04   -0.24942E-05  6340   0.282E-02    0.190E-02
DAV:   4    -0.141240868975E+03    0.16598E-04   -0.32303E-05  6710   0.393E-02    0.506E-03
DAV:   5    -0.141240866887E+03    0.20882E-05   -0.17076E-05  3985   0.226E-02    0.474E-03
DAV:   6    -0.141240865021E+03    0.18655E-05   -0.34821E-06  3845   0.110E-02
  55 F= -.14124087E+03 E0= -.14123842E+03  d E =-.425484E-03
       N       E                     dE             d eps       ncg     rms          rms(c)
DAV:   1    -0.141240665537E+03    0.20135E-03   -0.23032E-01  6385   0.215E+00    0.777E-02
DAV:   2    -0.141241126031E+03   -0.46049E-03   -0.56729E-03  7380   0.308E-01    0.410E-02
DAV:   3    -0.141241081502E+03    0.44529E-04   -0.54175E-05  7650   0.427E-02    0.268E-02
DAV:   4    -0.141241039320E+03    0.42182E-04   -0.57046E-05  7490   0.579E-02    0.833E-03
DAV:   5    -0.141241028543E+03    0.10777E-04   -0.39201E-05  6910   0.391E-02    0.740E-03
DAV:   6    -0.141241019497E+03    0.90457E-05   -0.10236E-05  3980   0.241E-02
  56 F= -.14124102E+03 E0= -.14123863E+03  d E =-.579961E-03
       N       E                     dE             d eps       ncg     rms          rms(c)
DAV:   1    -0.141241141467E+03   -0.11292E-03   -0.10549E-01  6520   0.145E+00    0.487E-02
DAV:   2    -0.141241335725E+03   -0.19426E-03   -0.25491E-03  7465   0.207E-01    0.282E-02
DAV:   3    -0.141241300164E+03    0.35562E-04   -0.26273E-05  6150   0.327E-02    0.194E-02
DAV:   4    -0.141241247023E+03    0.53141E-04   -0.45967E-05  7130   0.571E-02    0.742E-03
DAV:   5    -0.141241221155E+03    0.25868E-04   -0.32941E-05  7050   0.455E-02    0.659E-03
DAV:   6    -0.141241183292E+03    0.37863E-04   -0.14190E-05  5320   0.606E-02    0.604E-03
DAV:   7    -0.141241134038E+03    0.49255E-04   -0.23769E-05  6475   0.905E-02    0.775E-03
DAV:   8    -0.141241080673E+03    0.53364E-04   -0.70115E-05  8365   0.140E-01    0.547E-03
DAV:   9    -0.141241061788E+03    0.18885E-04   -0.80373E-05  7870   0.124E-01    0.730E-03
DAV:  10    -0.141241066999E+03   -0.52106E-05   -0.97573E-05  6695   0.443E-02
  57 F= -.14124107E+03 E0= -.14123866E+03  d E =-.475013E-04
       N       E                     dE             d eps       ncg     rms          rms(c)
DAV:   1    -0.141241064342E+03   -0.25541E-05   -0.17544E-05  4820   0.253E-02    0.319E-03
DAV:   2    -0.141241063935E+03    0.40736E-06   -0.42149E-06  3875   0.109E-02    0.229E-03
DAV:   3    -0.141241063455E+03    0.48006E-06   -0.48149E-07  3845   0.577E-03    0.159E-03
DAV:   4    -0.141241062639E+03    0.81585E-06   -0.48201E-07  4390   0.110E-02    0.834E-04
DAV:   5    -0.141241062329E+03    0.30955E-06   -0.87890E-07  3890   0.829E-03    0.866E-04
DAV:   6    -0.141241062190E+03    0.13887E-06   -0.61968E-07  3755   0.692E-03
  58 F= -.14124106E+03 E0= -.14123866E+03  d E =-.426931E-04
       N       E                     dE             d eps       ncg     rms          rms(c)
DAV:   1    -0.141241232939E+03   -0.17061E-03   -0.24321E-02  6690   0.694E-01    0.279E-02
DAV:   2    -0.141241271349E+03   -0.38411E-04   -0.56659E-04  7545   0.990E-02    0.153E-02
DAV:   3    -0.141241265288E+03    0.60607E-05   -0.85906E-06  4720   0.187E-02    0.984E-03
DAV:   4    -0.141241261159E+03    0.41297E-05   -0.11489E-05  4820   0.252E-02    0.275E-03
DAV:   5    -0.141241261390E+03   -0.23068E-06   -0.82794E-06  3820   0.134E-02    0.353E-03
DAV:   6    -0.141241261470E+03   -0.80417E-07   -0.11706E-06  3665   0.425E-03
  59 F= -.14124126E+03 E0= -.14123884E+03  d E =-.199280E-03
       N       E                     dE             d eps       ncg     rms          rms(c)
DAV:   1    -0.141241301935E+03   -0.40545E-04   -0.93987E-02  6600   0.136E+00    0.558E-02
DAV:   2    -0.141241447632E+03   -0.14570E-03   -0.22064E-03  7555   0.196E-01    0.296E-02
DAV:   3    -0.141241422712E+03    0.24920E-04   -0.37690E-05  7460   0.390E-02    0.193E-02
DAV:   4    -0.141241402767E+03    0.19946E-04   -0.41355E-05  7095   0.521E-02    0.683E-03
DAV:   5    -0.141241401022E+03    0.17447E-05   -0.29955E-05  6245   0.292E-02    0.743E-03
DAV:   6    -0.141241400950E+03    0.71945E-07   -0.53988E-06  3795   0.922E-03
  60 F= -.14124140E+03 E0= -.14123896E+03  d E =-.338760E-03
       N       E                     dE             d eps       ncg     rms          rms(c)
DAV:   1    -0.141241661540E+03   -0.26052E-03   -0.64126E-03  6440   0.351E-01    0.194E-02
DAV:   2    -0.141241659518E+03    0.20215E-05   -0.19083E-04  7720   0.605E-02    0.114E-02
DAV:   3    -0.141241648777E+03    0.10741E-04   -0.58586E-06  4430   0.202E-02    0.814E-03
DAV:   4    -0.141241625331E+03    0.23446E-04   -0.93542E-06  5230   0.429E-02    0.421E-03
DAV:   5    -0.141241608479E+03    0.16852E-04   -0.13371E-05  5140   0.405E-02    0.522E-03
DAV:   6    -0.141241577116E+03    0.31363E-04   -0.29592E-05  6710   0.859E-02    0.866E-03
DAV:   7    -0.141241550607E+03    0.26508E-04   -0.33101E-05  6850   0.102E-01    0.104E-02
DAV:   8    -0.141241542456E+03    0.81509E-05   -0.57110E-05  7340   0.682E-02
  61 F= -.14124154E+03 E0= -.14123910E+03  d E =-.141507E-03
       N       E                     dE             d eps       ncg     rms          rms(c)
DAV:   1    -0.141241560936E+03   -0.10328E-04   -0.87409E-04  6870   0.137E-01    0.798E-03
DAV:   2    -0.141241562941E+03   -0.20052E-05   -0.45142E-05  7195   0.298E-02    0.637E-03
DAV:   3    -0.141241562007E+03    0.93445E-06   -0.40064E-06  3845   0.863E-03    0.333E-03
DAV:   4    -0.141241561231E+03    0.77597E-06   -0.57801E-07  3865   0.559E-03    0.194E-03
DAV:   5    -0.141241559842E+03    0.13882E-05   -0.56228E-07  3895   0.913E-03    0.130E-03
DAV:   6    -0.141241557982E+03    0.18600E-05   -0.74031E-07  4170   0.154E-02
  62 F= -.14124156E+03 E0= -.14123912E+03  d E =-.157032E-03
       N       E                     dE             d eps       ncg     rms          rms(c)
DAV:   1    -0.141241696602E+03   -0.13676E-03   -0.19461E-02  6560   0.594E-01    0.312E-02
DAV:   2    -0.141241718204E+03   -0.21602E-04   -0.45674E-04  7695   0.852E-02    0.143E-02
DAV:   3    -0.141241711624E+03    0.65800E-05   -0.10217E-05  4850   0.204E-02    0.774E-03
DAV:   4    -0.141241708244E+03    0.33798E-05   -0.71088E-06  4780   0.219E-02    0.252E-03
DAV:   5    -0.141241707933E+03    0.31125E-06   -0.60608E-06  3890   0.145E-02    0.256E-03
DAV:   6    -0.141241707741E+03    0.19237E-06   -0.12832E-06  3760   0.566E-03
  63 F= -.14124171E+03 E0= -.14123929E+03  d E =-.149758E-03
       N       E                     dE             d eps       ncg     rms          rms(c)
DAV:   1    -0.141241756591E+03   -0.48658E-04   -0.39351E-02  6395   0.845E-01    0.454E-02
DAV:   2    -0.141241794106E+03   -0.37515E-04   -0.92349E-04  7710   0.124E-01    0.199E-02
DAV:   3    -0.141241779618E+03    0.14488E-04   -0.24560E-05  5950   0.309E-02    0.110E-02
DAV:   4    -0.141241769355E+03    0.10263E-04   -0.10046E-05  5115   0.323E-02    0.436E-03
DAV:   5    -0.141241764922E+03    0.44337E-05   -0.10913E-05  4960   0.300E-02    0.285E-03
DAV:   6    -0.141241762283E+03    0.26385E-05   -0.58052E-06  4110   0.232E-02
  64 F= -.14124176E+03 E0= -.14123937E+03  d E =-.204301E-03
       N       E                     dE             d eps       ncg     rms          rms(c)
DAV:   1    -0.141241817625E+03   -0.52703E-04   -0.34249E-02  6450   0.827E-01    0.306E-02
DAV:   2    -0.141241890373E+03   -0.72748E-04   -0.88405E-04  7270   0.119E-01    0.169E-02
DAV:   3    -0.141241880693E+03    0.96800E-05   -0.99603E-06  4925   0.180E-02    0.110E-02
DAV:   4    -0.141241869682E+03    0.11011E-04   -0.94221E-06  4590   0.262E-02    0.393E-03
DAV:   5    -0.141241863517E+03    0.61651E-05   -0.78089E-06  4395   0.235E-02    0.315E-03
DAV:   6    -0.141241857714E+03    0.58030E-05   -0.33362E-06  4365   0.211E-02
  65 F= -.14124186E+03 E0= -.14123949E+03  d E =-.954310E-04
       N       E                     dE             d eps       ncg     rms          rms(c)
DAV:   1    -0.141241800121E+03    0.63396E-04   -0.52882E-02  6500   0.103E+00    0.377E-02
DAV:   2    -0.141241910464E+03   -0.11034E-03   -0.13726E-03  7370   0.149E-01    0.212E-02
DAV:   3    -0.141241893918E+03    0.16546E-04   -0.16437E-05  5730   0.227E-02    0.137E-02
DAV:   4    -0.141241873887E+03    0.20031E-04   -0.14105E-05  5110   0.333E-02    0.524E-03
DAV:   5    -0.141241860736E+03    0.13150E-04   -0.12392E-05  4880   0.332E-02    0.401E-03
DAV:   6    -0.141241848433E+03    0.12303E-04   -0.72818E-06  4795   0.321E-02    0.353E-03
DAV:   7    -0.141241832553E+03    0.15880E-04   -0.40622E-06  4900   0.422E-02    0.316E-03
DAV:   8    -0.141241796580E+03    0.35973E-04   -0.43787E-05  7240   0.133E-01    0.461E-03
DAV:   9    -0.141241794624E+03    0.19559E-05   -0.53059E-05  7000   0.556E-02
  66 F= -.14124179E+03 E0= -.14123945E+03  d E =-.323411E-04
       N       E                     dE             d eps       ncg     rms          rms(c)
DAV:   1    -0.141241810647E+03   -0.14067E-04   -0.11114E-02  6790   0.471E-01    0.195E-02
DAV:   2    -0.141241833971E+03   -0.23324E-04   -0.29581E-04  7430   0.699E-02    0.945E-03
DAV:   3    -0.141241830997E+03    0.29738E-05   -0.41835E-06  4025   0.120E-02    0.604E-03
DAV:   4    -0.141241828442E+03    0.25551E-05   -0.41764E-06  4540   0.143E-02    0.211E-03
DAV:   5    -0.141241827929E+03    0.51319E-06   -0.27210E-06  3755   0.979E-03    0.187E-03
DAV:   6    -0.141241827559E+03    0.36925E-06   -0.10028E-06  3705   0.648E-03
  67 F= -.14124183E+03 E0= -.14123947E+03  d E =-.652763E-04
       N       E                     dE             d eps       ncg     rms          rms(c)
DAV:   1    -0.141241831958E+03   -0.40297E-05   -0.39144E-03  6590   0.280E-01    0.103E-02
DAV:   2    -0.141241839867E+03   -0.79091E-05   -0.10069E-04  7450   0.404E-02    0.567E-03
DAV:   3    -0.141241838567E+03    0.13009E-05   -0.12375E-06  3775   0.656E-03    0.371E-03
DAV:   4    -0.141241836991E+03    0.15754E-05   -0.12378E-06  3960   0.966E-03    0.136E-03
DAV:   5    -0.141241836126E+03    0.86534E-06   -0.11455E-06  3945   0.862E-03    0.112E-03
DAV:   6    -0.141241835303E+03    0.82340E-06   -0.53155E-07  4010   0.782E-03
  68 F= -.14124184E+03 E0= -.14123947E+03  d E =-.730195E-04
       N       E                     dE             d eps       ncg     rms          rms(c)
DAV:   1    -0.141241912498E+03   -0.76372E-04   -0.88080E-03  6390   0.411E-01    0.173E-02
DAV:   2    -0.141241930432E+03   -0.17935E-04   -0.24262E-04  7440   0.628E-02    0.918E-03
DAV:   3    -0.141241928078E+03    0.23544E-05   -0.54239E-06  4015   0.147E-02    0.622E-03
DAV:   4    -0.141241925612E+03    0.24661E-05   -0.28462E-06  4405   0.155E-02    0.233E-03
DAV:   5    -0.141241924690E+03    0.92179E-06   -0.24921E-06  3980   0.130E-02    0.204E-03
DAV:   6    -0.141241924169E+03    0.52069E-06   -0.17652E-06  3895   0.103E-02
  69 F= -.14124192E+03 E0= -.14123957E+03  d E =-.888669E-04
       N       E                     dE             d eps       ncg     rms          rms(c)
DAV:   1    -0.141241930117E+03   -0.54273E-05   -0.78923E-02  6380   0.123E+00    0.505E-02
DAV:   2    -0.141242091289E+03   -0.16117E-03   -0.21333E-03  7480   0.184E-01    0.272E-02
DAV:   3    -0.141242071012E+03    0.20277E-04   -0.48282E-05  7610   0.415E-02    0.183E-02
DAV:   4    -0.141242053631E+03    0.17381E-04   -0.21212E-05  5910   0.355E-02    0.761E-03
DAV:   5    -0.141242045217E+03    0.84134E-05   -0.13595E-05  5140   0.373E-02    0.483E-03
DAV:   6    -0.141242041557E+03    0.36602E-05   -0.15003E-05  5410   0.330E-02
  70 F= -.14124204E+03 E0= -.14123972E+03  d E =-.206255E-03
       N       E                     dE             d eps       ncg     rms          rms(c)
DAV:   1    -0.141242178178E+03   -0.13296E-03   -0.26918E-03  6570   0.232E-01    0.131E-02
DAV:   2    -0.141242178123E+03    0.55255E-07   -0.69559E-05  7440   0.371E-02    0.672E-03
DAV:   3    -0.141242174919E+03    0.32038E-05   -0.26385E-06  3950   0.122E-02    0.433E-03
DAV:   4    -0.141242169765E+03    0.51542E-05   -0.17561E-06  4485   0.192E-02    0.220E-03
DAV:   5    -0.141242165645E+03    0.41201E-05   -0.23537E-06  4065   0.186E-02    0.226E-03
DAV:   6    -0.141242155687E+03    0.99578E-05   -0.43666E-06  4960   0.504E-02
  71 F= -.14124216E+03 E0= -.14123984E+03  d E =-.114130E-03
       N       E                     dE             d eps       ncg     rms          rms(c)
DAV:   1    -0.141242281771E+03   -0.11613E-03   -0.11331E-02  6610   0.476E-01    0.238E-02
DAV:   2    -0.141242288839E+03   -0.70679E-05   -0.30189E-04  7730   0.758E-02    0.137E-02
DAV:   3    -0.141242278271E+03    0.10568E-04   -0.10804E-05  4790   0.210E-02    0.854E-03
DAV:   4    -0.141242260106E+03    0.18165E-04   -0.91875E-06  5110   0.326E-02    0.411E-03
DAV:   5    -0.141242249120E+03    0.10987E-04   -0.87602E-06  4910   0.280E-02    0.413E-03
DAV:   6    -0.141242225738E+03    0.23381E-04   -0.13537E-05  5440   0.669E-02    0.474E-03
DAV:   7    -0.141242218349E+03    0.73891E-05   -0.24929E-05  6170   0.348E-02
  72 F= -.14124222E+03 E0= -.14123990E+03  d E =-.176792E-03
       N       E                     dE             d eps       ncg     rms          rms(c)
DAV:   1    -0.141242286392E+03   -0.60654E-04   -0.17224E-02  6610   0.577E-01    0.247E-02
DAV:   2    -0.141242314083E+03   -0.27690E-04   -0.39356E-04  7580   0.815E-02    0.106E-02
DAV:   3    -0.141242310814E+03    0.32691E-05   -0.75060E-06  4000   0.127E-02    0.614E-03
DAV:   4    -0.141242308608E+03    0.22055E-05   -0.30254E-06  4145   0.111E-02    0.238E-03
DAV:   5    -0.141242307722E+03    0.88656E-06   -0.17266E-06  3890   0.841E-03    0.216E-03
DAV:   6    -0.141242306896E+03    0.82516E-06   -0.66388E-07  3885   0.854E-03
  73 F= -.14124231E+03 E0= -.14124000E+03  d E =-.885470E-04
       N       E                     dE             d eps       ncg     rms          rms(c)
DAV:   1    -0.141242204474E+03    0.10325E-03   -0.15478E-01  6380   0.173E+00    0.720E-02
DAV:   2    -0.141242464286E+03   -0.25981E-03   -0.35121E-03  7590   0.243E-01    0.338E-02
DAV:   3    -0.141242434270E+03    0.30016E-04   -0.48750E-05  7720   0.404E-02    0.197E-02
DAV:   4    -0.141242417649E+03    0.16621E-04   -0.41343E-05  7400   0.428E-02    0.735E-03
DAV:   5    -0.141242416314E+03    0.13351E-05   -0.19627E-05  5200   0.253E-02    0.628E-03
DAV:   6    -0.141242414931E+03    0.13832E-05   -0.65180E-06  4010   0.156E-02
  74 F= -.14124241E+03 E0= -.14124012E+03  d E =-.196582E-03
       N       E                     dE             d eps       ncg     rms          rms(c)
DAV:   1    -0.141242470043E+03   -0.53729E-04   -0.21203E-02  6450   0.647E-01    0.222E-02
DAV:   2    -0.141242514152E+03   -0.44109E-04   -0.49803E-04  7165   0.906E-02    0.107E-02
DAV:   3    -0.141242510707E+03    0.34455E-05   -0.48237E-06  4045   0.120E-02    0.686E-03
DAV:   4    -0.141242507617E+03    0.30893E-05   -0.38465E-06  3950   0.151E-02    0.229E-03
DAV:   5    -0.141242506318E+03    0.12991E-05   -0.27533E-06  3995   0.127E-02    0.175E-03
DAV:   6    -0.141242504903E+03    0.14155E-05   -0.69622E-07  3905   0.115E-02
  75 F= -.14124250E+03 E0= -.14124022E+03  d E =-.899718E-04
       N       E                     dE             d eps       ncg     rms          rms(c)
DAV:   1    -0.141242352683E+03    0.15364E-03   -0.19101E-01  6420   0.194E+00    0.646E-02
DAV:   2    -0.141242740346E+03   -0.38766E-03   -0.44180E-03  7200   0.269E-01    0.326E-02
DAV:   3    -0.141242709049E+03    0.31297E-04   -0.45118E-05  7180   0.347E-02    0.210E-02
DAV:   4    -0.141242681528E+03    0.27521E-04   -0.34304E-05  7140   0.420E-02    0.714E-03
DAV:   5    -0.141242669933E+03    0.11596E-04   -0.24244E-05  6040   0.332E-02    0.472E-03
DAV:   6    -0.141242657521E+03    0.12412E-04   -0.47107E-06  4800   0.278E-02    0.352E-03
DAV:   7    -0.141242639656E+03    0.17864E-04   -0.54456E-06  5045   0.464E-02    0.464E-03
DAV:   8    -0.141242618729E+03    0.20927E-04   -0.22069E-05  6275   0.735E-02    0.447E-03
DAV:   9    -0.141242606671E+03    0.12059E-04   -0.21837E-05  6010   0.717E-02    0.274E-03
DAV:  10    -0.141242601942E+03    0.47289E-05   -0.20768E-05  5830   0.673E-02
  76 F= -.14124260E+03 E0= -.14124034E+03  d E =-.187011E-03
       N       E                     dE             d eps       ncg     rms          rms(c)
DAV:   1    -0.141242707917E+03   -0.10125E-03   -0.28254E-02  6585   0.742E-01    0.293E-02
DAV:   2    -0.141242765883E+03   -0.57966E-04   -0.72378E-04  7480   0.107E-01    0.149E-02
DAV:   3    -0.141242761500E+03    0.43831E-05   -0.15354E-05  4645   0.213E-02    0.968E-03
DAV:   4    -0.141242758744E+03    0.27558E-05   -0.66202E-06  4075   0.158E-02    0.384E-03
DAV:   5    -0.141242757925E+03    0.81881E-06   -0.32701E-06  4415   0.134E-02    0.207E-03
DAV:   6    -0.141242757767E+03    0.15790E-06   -0.23867E-06  3785   0.983E-03
  77 F= -.14124276E+03 E0= -.14124052E+03  d E =-.155826E-03
       N       E                     dE             d eps       ncg     rms          rms(c)
DAV:   1    -0.141242595439E+03    0.16249E-03   -0.18728E-01  6390   0.191E+00    0.752E-02
DAV:   2    -0.141242984636E+03   -0.38920E-03   -0.48877E-03  7510   0.276E-01    0.376E-02
DAV:   3    -0.141242948236E+03    0.36401E-04   -0.81559E-05  7740   0.527E-02    0.250E-02
DAV:   4    -0.141242918857E+03    0.29379E-04   -0.50734E-05  7400   0.491E-02    0.936E-03
DAV:   5    -0.141242910240E+03    0.86167E-05   -0.24784E-05  6670   0.411E-02    0.637E-03
DAV:   6    -0.141242905575E+03    0.46655E-05   -0.17113E-05  5320   0.366E-02
  78 F= -.14124291E+03 E0= -.14124072E+03  d E =-.303633E-03
       N       E                     dE             d eps       ncg     rms          rms(c)
DAV:   1    -0.141243036132E+03   -0.12589E-03   -0.18760E-02  6430   0.613E-01    0.231E-02
DAV:   2    -0.141243066706E+03   -0.30574E-04   -0.41968E-04  7550   0.855E-02    0.117E-02
DAV:   3    -0.141243061132E+03    0.55733E-05   -0.52910E-06  4510   0.159E-02    0.744E-03
DAV:   4    -0.141243052989E+03    0.81435E-05   -0.54006E-06  4710   0.250E-02    0.277E-03
DAV:   5    -0.141243048231E+03    0.47579E-05   -0.52685E-06  4105   0.215E-02    0.317E-03
DAV:   6    -0.141243037525E+03    0.10705E-04   -0.52193E-06  5025   0.479E-02    0.348E-03
DAV:   7    -0.141243035515E+03    0.20104E-05   -0.10157E-05  4145   0.185E-02
  79 F= -.14124304E+03 E0= -.14124088E+03  d E =-.129940E-03
       N       E                     dE             d eps       ncg     rms          rms(c)
DAV:   1    -0.141243074252E+03   -0.36726E-04   -0.23312E-02  6450   0.683E-01    0.241E-02
DAV:   2    -0.141243109835E+03   -0.35584E-04   -0.50909E-04  7620   0.947E-02    0.124E-02
DAV:   3    -0.141243101699E+03    0.81362E-05   -0.71946E-06  4700   0.183E-02    0.814E-03
DAV:   4    -0.141243087158E+03    0.14542E-04   -0.76546E-06  5170   0.309E-02    0.317E-03
DAV:   5    -0.141243078572E+03    0.85856E-05   -0.94218E-06  4790   0.275E-02    0.415E-03
DAV:   6    -0.141243057803E+03    0.20768E-04   -0.11876E-05  5230   0.710E-02    0.391E-03
DAV:   7    -0.141243054066E+03    0.37379E-05   -0.26498E-05  6110   0.327E-02
  80 F= -.14124305E+03 E0= -.14124094E+03  d E =-.148491E-03
       N       E                     dE             d eps       ncg     rms          rms(c)
DAV:   1    -0.141243096152E+03   -0.38349E-04   -0.63803E-02  6450   0.111E+00    0.497E-02
DAV:   2    -0.141243197793E+03   -0.10164E-03   -0.14595E-03  7600   0.155E-01    0.206E-02
DAV:   3    -0.141243186737E+03    0.11056E-04   -0.18426E-05  5005   0.245E-02    0.111E-02
DAV:   4    -0.141243181225E+03    0.55118E-05   -0.12811E-05  4860   0.251E-02    0.352E-03
DAV:   5    -0.141243180929E+03    0.29618E-06   -0.84811E-06  3935   0.171E-02    0.339E-03
DAV:   6    -0.141243180766E+03    0.16300E-06   -0.21324E-06  3830   0.725E-03
  81 F= -.14124318E+03 E0= -.14124110E+03  d E =-.126701E-03
       N       E                     dE             d eps       ncg     rms          rms(c)
DAV:   1    -0.141243143891E+03    0.37038E-04   -0.54679E-02  6380   0.103E+00    0.458E-02
DAV:   2    -0.141243230642E+03   -0.86751E-04   -0.12474E-03  7610   0.145E-01    0.190E-02
DAV:   3    -0.141243219424E+03    0.11218E-04   -0.16669E-05  5120   0.274E-02    0.105E-02
DAV:   4    -0.141243211856E+03    0.75673E-05   -0.10910E-05  5000   0.319E-02    0.373E-03
DAV:   5    -0.141243210162E+03    0.16939E-05   -0.11572E-05  4580   0.257E-02    0.336E-03
DAV:   6    -0.141243209741E+03    0.42175E-06   -0.60248E-06  3845   0.135E-02
  82 F= -.14124321E+03 E0= -.14124117E+03  d E =-.155675E-03
       N       E                     dE             d eps       ncg     rms          rms(c)
DAV:   1    -0.141243123413E+03    0.86749E-04   -0.15392E-01  6460   0.174E+00    0.588E-02
DAV:   2    -0.141243436289E+03   -0.31288E-03   -0.35668E-03  7255   0.243E-01    0.295E-02
DAV:   3    -0.141243410291E+03    0.25998E-04   -0.36118E-05  7060   0.315E-02    0.192E-02
DAV:   4    -0.141243386166E+03    0.24125E-04   -0.28556E-05  6720   0.405E-02    0.619E-03
DAV:   5    -0.141243376830E+03    0.93363E-05   -0.22011E-05  5500   0.313E-02    0.474E-03
DAV:   6    -0.141243365572E+03    0.11258E-04   -0.57329E-06  4770   0.267E-02    0.399E-03
DAV:   7    -0.141243349796E+03    0.15776E-04   -0.56599E-06  5065   0.459E-02    0.563E-03
DAV:   8    -0.141243337610E+03    0.12186E-04   -0.14636E-05  5790   0.494E-02    0.445E-03
DAV:   9    -0.141243324391E+03    0.13218E-04   -0.86560E-06  5150   0.763E-02    0.279E-03
DAV:  10    -0.141243321503E+03    0.28881E-05   -0.35073E-05  6600   0.625E-02
  83 F= -.14124332E+03 E0= -.14124130E+03  d E =-.111763E-03
       N       E                     dE             d eps       ncg     rms          rms(c)
DAV:   1    -0.141243323055E+03    0.13368E-05   -0.45728E-04  6710   0.946E-02    0.756E-03
DAV:   2    -0.141243323227E+03   -0.17284E-06   -0.18313E-05  4315   0.184E-02    0.217E-03
DAV:   3    -0.141243322917E+03    0.31040E-06   -0.12066E-06  3805   0.702E-03    0.156E-03
DAV:   4    -0.141243322532E+03    0.38532E-06   -0.37881E-07  3890   0.785E-03    0.843E-04
DAV:   5    -0.141243322283E+03    0.24913E-06   -0.46813E-07  4035   0.792E-03    0.810E-04
DAV:   6    -0.141243322224E+03    0.58551E-07   -0.50354E-07  3675   0.454E-03
  84 F= -.14124332E+03 E0= -.14124130E+03  d E =-.112483E-03
       N       E                     dE             d eps       ncg     rms          rms(c)
DAV:   1    -0.141243382252E+03   -0.59970E-04   -0.38731E-02  6400   0.871E-01    0.384E-02
DAV:   2    -0.141243446576E+03   -0.64324E-04   -0.10030E-03  7535   0.130E-01    0.185E-02
DAV:   3    -0.141243434618E+03    0.11958E-04   -0.22269E-05  5520   0.320E-02    0.118E-02
DAV:   4    -0.141243423261E+03    0.11357E-04   -0.13667E-05  5620   0.352E-02    0.440E-03
DAV:   5    -0.141243419449E+03    0.38126E-05   -0.12559E-05  4890   0.287E-02    0.341E-03
DAV:   6    -0.141243417628E+03    0.18207E-05   -0.65338E-06  4040   0.210E-02
  85 F= -.14124342E+03 E0= -.14124139E+03  d E =-.954039E-04
       N       E                     dE             d eps       ncg     rms          rms(c)
DAV:   1    -0.141243414047E+03    0.54016E-05   -0.22253E-03  6660   0.211E-01    0.874E-03
DAV:   2    -0.141243417049E+03   -0.30023E-05   -0.63936E-05  7480   0.360E-02    0.523E-03
DAV:   3    -0.141243415569E+03    0.14807E-05   -0.21732E-06  3830   0.998E-03    0.361E-03
DAV:   4    -0.141243413015E+03    0.25533E-05   -0.13483E-06  4585   0.160E-02    0.157E-03
DAV:   5    -0.141243411849E+03    0.11663E-05   -0.15131E-06  3905   0.132E-02    0.154E-03
DAV:   6    -0.141243410531E+03    0.13180E-05   -0.12804E-06  4480   0.207E-02
  86 F= -.14124341E+03 E0= -.14124139E+03  d E =-.883070E-04
       N       E                     dE             d eps       ncg     rms          rms(c)
DAV:   1    -0.141243465063E+03   -0.53214E-04   -0.61774E-03  6450   0.349E-01    0.203E-02
DAV:   2    -0.141243469132E+03   -0.40691E-05   -0.17352E-04  7650   0.557E-02    0.885E-03
DAV:   3    -0.141243465268E+03    0.38644E-05   -0.62815E-06  4150   0.144E-02    0.477E-03
DAV:   4    -0.141243461077E+03    0.41911E-05   -0.25309E-06  4545   0.149E-02    0.257E-03
DAV:   5    -0.141243456989E+03    0.40873E-05   -0.20356E-06  4325   0.169E-02    0.208E-03
DAV:   6    -0.141243451326E+03    0.56635E-05   -0.31750E-06  4855   0.279E-02
  87 F= -.14124345E+03 E0= -.14124143E+03  d E =-.407950E-04
