       N       E                     dE             d eps       ncg     rms          rms(c)
DAV:   1     0.519603900391E+03    0.51960E+03   -0.45641E+04  2780   0.135E+03
DAV:   2    -0.102903910825E+03   -0.62251E+03   -0.59267E+03  3562   0.257E+02
DAV:   3    -0.161110278670E+03   -0.58206E+02   -0.57885E+02  3224   0.853E+01
DAV:   4    -0.161876525571E+03   -0.76625E+00   -0.76510E+00  3200   0.106E+01
DAV:   5    -0.161888586466E+03   -0.12061E-01   -0.12056E-01  3368   0.130E+00    0.231E+01
DAV:   6    -0.145907055827E+03    0.15982E+02   -0.92518E+01  3090   0.302E+01    0.779E+00
DAV:   7    -0.145774824805E+03    0.13223E+00   -0.17378E+00  3038   0.519E+00    0.477E+00
DAV:   8    -0.145661014126E+03    0.11381E+00   -0.50727E-01  3264   0.405E+00    0.791E-01
DAV:   9    -0.145649421378E+03    0.11593E-01   -0.91400E-02  3158   0.120E+00    0.497E-01
DAV:  10    -0.145648455151E+03    0.96623E-03   -0.36038E-02  3184   0.776E-01    0.241E-01
DAV:  11    -0.145649042115E+03   -0.58696E-03   -0.34130E-03  3128   0.262E-01    0.165E-01
DAV:  12    -0.145648832891E+03    0.20922E-03   -0.21334E-03  3784   0.269E-01    0.642E-02
DAV:  13    -0.145648787958E+03    0.44933E-04   -0.15906E-03  3174   0.163E-01    0.528E-02
DAV:  14    -0.145648721564E+03    0.66394E-04   -0.13570E-04  3424   0.660E-02    0.386E-02
DAV:  15    -0.145648644799E+03    0.76765E-04   -0.94256E-05  3326   0.709E-02    0.231E-02
DAV:  16    -0.145648593871E+03    0.50929E-04   -0.16619E-04  3374   0.868E-02    0.131E-02
DAV:  17    -0.145648567726E+03    0.26145E-04   -0.80410E-05  3064   0.502E-02    0.104E-02
DAV:  18    -0.145648529884E+03    0.37842E-04   -0.33610E-05  2498   0.774E-02    0.130E-02
DAV:  19    -0.145648513019E+03    0.16865E-04   -0.45182E-05  2862   0.589E-02    0.868E-03
DAV:  20    -0.145648492123E+03    0.20896E-04   -0.26520E-05  2490   0.899E-02    0.443E-03
DAV:  21    -0.145648487637E+03    0.44859E-05   -0.63003E-05  2836   0.670E-02
   1 F= -.14564849E+03 E0= -.14564734E+03  d E =-.145648E+03
       N       E                     dE             d eps       ncg     rms          rms(c)
DAV:   1    -0.145649225059E+03   -0.73294E-03   -0.22364E-02  2844   0.646E-01    0.265E-02
DAV:   2    -0.145649256837E+03   -0.31778E-04   -0.78563E-04  3186   0.120E-01    0.221E-02
DAV:   3    -0.145649240046E+03    0.16791E-04   -0.39924E-05  2814   0.369E-02    0.161E-02
DAV:   4    -0.145649220979E+03    0.19067E-04   -0.21382E-05  2258   0.348E-02    0.812E-03
DAV:   5    -0.145649196907E+03    0.24071E-04   -0.13588E-05  2200   0.500E-02    0.553E-03
DAV:   6    -0.145649173223E+03    0.23684E-04   -0.20452E-05  2462   0.663E-02    0.483E-03
DAV:   7    -0.145649152389E+03    0.20835E-04   -0.19654E-05  2270   0.720E-02    0.528E-03
DAV:   8    -0.145649121113E+03    0.31276E-04   -0.23725E-05  2558   0.131E-01    0.762E-03
DAV:   9    -0.145649117322E+03    0.37910E-05   -0.69021E-05  2798   0.561E-02
   2 F= -.14564912E+03 E0= -.14564790E+03  d E =-.629685E-03
       N       E                     dE             d eps       ncg     rms          rms(c)
DAV:   1    -0.145649279684E+03   -0.15857E-03   -0.10536E-02  2896   0.441E-01    0.181E-02
DAV:   2    -0.145649290671E+03   -0.10988E-04   -0.32816E-04  3216   0.763E-02    0.115E-02
DAV:   3    -0.145649283430E+03    0.72417E-05   -0.18373E-05  2288   0.213E-02    0.853E-03
DAV:   4    -0.145649276550E+03    0.68793E-05   -0.40080E-06  1816   0.180E-02    0.519E-03
DAV:   5    -0.145649261985E+03    0.14565E-04   -0.65654E-06  2038   0.400E-02    0.294E-03
DAV:   6    -0.145649252135E+03    0.98503E-05   -0.12097E-05  2076   0.381E-02
   3 F= -.14564925E+03 E0= -.14564799E+03  d E =-.764498E-03
       N       E                     dE             d eps       ncg     rms          rms(c)
DAV:   1    -0.145649718281E+03   -0.45630E-03   -0.79550E-02  2832   0.122E+00    0.414E-02
DAV:   2    -0.145649880626E+03   -0.16234E-03   -0.20157E-03  3144   0.179E-01    0.227E-02
DAV:   3    -0.145649869060E+03    0.11565E-04   -0.56989E-05  3132   0.378E-02    0.149E-02
DAV:   4    -0.145649860948E+03    0.81122E-05   -0.10082E-05  1832   0.194E-02    0.874E-03
DAV:   5    -0.145649851831E+03    0.91169E-05   -0.12056E-05  2050   0.328E-02    0.490E-03
DAV:   6    -0.145649850449E+03    0.13821E-05   -0.12695E-05  1876   0.201E-02
   4 F= -.14564985E+03 E0= -.14564852E+03  d E =-.598314E-03
       N       E                     dE             d eps       ncg     rms          rms(c)
DAV:   1    -0.145649565146E+03    0.28668E-03   -0.47615E-01  2784   0.300E+00    0.101E-01
DAV:   2    -0.145650564307E+03   -0.99916E-03   -0.12279E-02  3150   0.448E-01    0.555E-02
DAV:   3    -0.145650485002E+03    0.79305E-04   -0.26764E-04  3234   0.827E-02    0.387E-02
DAV:   4    -0.145650410211E+03    0.74791E-04   -0.76538E-05  3144   0.538E-02    0.203E-02
DAV:   5    -0.145650351710E+03    0.58501E-04   -0.70354E-05  3228   0.846E-02    0.130E-02
DAV:   6    -0.145650326462E+03    0.25248E-04   -0.69335E-05  3004   0.771E-02    0.919E-03
DAV:   7    -0.145650314791E+03    0.11670E-04   -0.55756E-05  2806   0.610E-02    0.981E-03
DAV:   8    -0.145650301044E+03    0.13747E-04   -0.94212E-06  1888   0.400E-02    0.438E-03
DAV:   9    -0.145650287923E+03    0.13121E-04   -0.11903E-05  2068   0.574E-02    0.656E-03
DAV:  10    -0.145650281135E+03    0.67881E-05   -0.18523E-05  2308   0.544E-02
   5 F= -.14565028E+03 E0= -.14564882E+03  d E =-.102900E-02
       N       E                     dE             d eps       ncg     rms          rms(c)
DAV:   1    -0.145650285066E+03    0.28564E-05   -0.19950E-02  2824   0.612E-01    0.244E-02
DAV:   2    -0.145650322218E+03   -0.37152E-04   -0.52165E-04  3144   0.940E-02    0.130E-02
DAV:   3    -0.145650318967E+03    0.32516E-05   -0.31634E-05  2516   0.280E-02    0.742E-03
DAV:   4    -0.145650317077E+03    0.18903E-05   -0.48240E-06  1664   0.108E-02    0.453E-03
DAV:   5    -0.145650314316E+03    0.27610E-05   -0.34698E-06  1866   0.157E-02    0.264E-03
DAV:   6    -0.145650313397E+03    0.91883E-06   -0.32036E-06  1772   0.125E-02
   6 F= -.14565031E+03 E0= -.14564887E+03  d E =-.106126E-02
       N       E                     dE             d eps       ncg     rms          rms(c)
DAV:   1    -0.145650508861E+03   -0.19455E-03   -0.64953E-02  2880   0.109E+00    0.330E-02
DAV:   2    -0.145650641994E+03   -0.13313E-03   -0.14917E-03  3072   0.149E-01    0.186E-02
DAV:   3    -0.145650632895E+03    0.90990E-05   -0.13242E-05  2148   0.191E-02    0.128E-02
DAV:   4    -0.145650623796E+03    0.90993E-05   -0.15873E-05  2108   0.291E-02    0.383E-03
DAV:   5    -0.145650622992E+03    0.80371E-06   -0.14310E-05  1858   0.177E-02    0.385E-03
DAV:   6    -0.145650622372E+03    0.62012E-06   -0.19281E-06  1478   0.662E-03
   7 F= -.14565062E+03 E0= -.14564916E+03  d E =-.308975E-03
       N       E                     dE             d eps       ncg     rms          rms(c)
DAV:   1    -0.145650165155E+03    0.45784E-03   -0.58582E-01  2872   0.328E+00    0.100E-01
DAV:   2    -0.145651394338E+03   -0.12292E-02   -0.13648E-02  3044   0.448E-01    0.566E-02
DAV:   3    -0.145651314201E+03    0.80137E-04   -0.12324E-04  3228   0.590E-02    0.384E-02
DAV:   4    -0.145651242029E+03    0.72172E-04   -0.15665E-04  3244   0.854E-02    0.117E-02
DAV:   5    -0.145651238833E+03    0.31960E-05   -0.10457E-04  3104   0.440E-02    0.124E-02
DAV:   6    -0.145651233973E+03    0.48600E-05   -0.99609E-06  1792   0.145E-02
   8 F= -.14565123E+03 E0= -.14564973E+03  d E =-.920576E-03
       N       E                     dE             d eps       ncg     rms          rms(c)
DAV:   1    -0.145646746451E+03    0.44924E-02   -0.23423E+00  2880   0.655E+00    0.199E-01
DAV:   2    -0.145651658275E+03   -0.49118E-02   -0.54552E-02  3054   0.895E-01    0.115E-01
DAV:   3    -0.145651328831E+03    0.32944E-03   -0.48831E-04  3210   0.119E-01    0.771E-02
DAV:   4    -0.145651026991E+03    0.30184E-03   -0.62645E-04  3300   0.170E-01    0.230E-02
DAV:   5    -0.145651012097E+03    0.14895E-04   -0.41703E-04  3168   0.884E-02    0.233E-02
DAV:   6    -0.145650991715E+03    0.20382E-04   -0.40056E-05  2826   0.289E-02    0.137E-02
DAV:   7    -0.145650945107E+03    0.46608E-04   -0.50373E-05  2988   0.416E-02    0.115E-02
DAV:   8    -0.145650910141E+03    0.34966E-04   -0.22650E-05  2340   0.486E-02    0.168E-02
DAV:   9    -0.145650870649E+03    0.39493E-04   -0.62148E-05  2892   0.764E-02    0.109E-02
DAV:  10    -0.145650844949E+03    0.25700E-04   -0.74171E-05  3276   0.708E-02    0.107E-02
DAV:  11    -0.145650819586E+03    0.25363E-04   -0.33139E-05  2716   0.741E-02    0.994E-03
DAV:  12    -0.145650812685E+03    0.69010E-05   -0.39968E-05  2844   0.460E-02
   9 F= -.14565081E+03 E0= -.14564929E+03  d E =-.499289E-03
       N       E                     dE             d eps       ncg     rms          rms(c)
DAV:   1    -0.145649621675E+03    0.11979E-02   -0.91248E-01  2872   0.406E+00    0.127E-01
DAV:   2    -0.145651542226E+03   -0.19206E-02   -0.21455E-02  3056   0.555E-01    0.698E-02
DAV:   3    -0.145651421581E+03    0.12064E-03   -0.20719E-04  3250   0.780E-02    0.485E-02
DAV:   4    -0.145651317875E+03    0.10371E-03   -0.26462E-04  3276   0.111E-01    0.160E-02
DAV:   5    -0.145651315538E+03    0.23370E-05   -0.16999E-04  3170   0.601E-02    0.180E-02
DAV:   6    -0.145651310341E+03    0.51969E-05   -0.21128E-05  2112   0.201E-02
  10 F= -.14565131E+03 E0= -.14564979E+03  d E =-.996944E-03
       N       E                     dE             d eps       ncg     rms          rms(c)
DAV:   1    -0.145651545846E+03   -0.23031E-03   -0.12734E-01  2800   0.153E+00    0.493E-02
DAV:   2    -0.145651805809E+03   -0.25996E-03   -0.30542E-03  3104   0.219E-01    0.271E-02
DAV:   3    -0.145651789118E+03    0.16691E-04   -0.60998E-05  3024   0.369E-02    0.204E-02
DAV:   4    -0.145651773660E+03    0.15458E-04   -0.28006E-05  2398   0.281E-02    0.961E-03
DAV:   5    -0.145651759508E+03    0.14152E-04   -0.12187E-05  1928   0.348E-02    0.816E-03
DAV:   6    -0.145651750969E+03    0.85391E-05   -0.10166E-05  1904   0.301E-02
  11 F= -.14565175E+03 E0= -.14565022E+03  d E =-.440628E-03
       N       E                     dE             d eps       ncg     rms          rms(c)
DAV:   1    -0.145651176436E+03    0.58307E-03   -0.44134E-01  2776   0.287E+00    0.947E-02
DAV:   2    -0.145652117190E+03   -0.94075E-03   -0.10950E-02  3130   0.416E-01    0.536E-02
DAV:   3    -0.145652049055E+03    0.68134E-04   -0.19960E-04  3222   0.781E-02    0.391E-02
DAV:   4    -0.145651978126E+03    0.70930E-04   -0.15487E-04  3178   0.781E-02    0.185E-02
DAV:   5    -0.145651933855E+03    0.44271E-04   -0.52733E-05  3052   0.741E-02    0.182E-02
DAV:   6    -0.145651894707E+03    0.39148E-04   -0.56844E-05  2880   0.730E-02    0.851E-03
DAV:   7    -0.145651845080E+03    0.49627E-04   -0.18018E-05  2250   0.861E-02    0.738E-03
DAV:   8    -0.145651785179E+03    0.59901E-04   -0.32625E-05  2720   0.105E-01    0.730E-03
DAV:   9    -0.145651704273E+03    0.80906E-04   -0.61410E-05  3298   0.172E-01    0.609E-03
DAV:  10    -0.145651643575E+03    0.60699E-04   -0.15962E-04  4226   0.249E-01    0.922E-03
DAV:  11    -0.145651657337E+03   -0.13763E-04   -0.26317E-04  2912   0.995E-02    0.658E-03
DAV:  12    -0.145651665581E+03   -0.82438E-05   -0.94104E-05  2780   0.353E-02
  12 F= -.14565167E+03 E0= -.14565014E+03  d E =-.355240E-03
       N       E                     dE             d eps       ncg     rms          rms(c)
DAV:   1    -0.145651685470E+03   -0.28132E-04   -0.91467E-02  2800   0.131E+00    0.464E-02
DAV:   2    -0.145651864122E+03   -0.17865E-03   -0.22034E-03  3120   0.195E-01    0.237E-02
DAV:   3    -0.145651855950E+03    0.81719E-05   -0.84112E-05  3062   0.461E-02    0.178E-02
DAV:   4    -0.145651848679E+03    0.72712E-05   -0.24665E-05  2074   0.254E-02    0.930E-03
DAV:   5    -0.145651840610E+03    0.80688E-05   -0.68974E-06  1810   0.287E-02    0.572E-03
DAV:   6    -0.145651834907E+03    0.57027E-05   -0.76818E-06  1964   0.314E-02
  13 F= -.14565183E+03 E0= -.14565030E+03  d E =-.524566E-03
       N       E                     dE             d eps       ncg     rms          rms(c)
DAV:   1    -0.145651797036E+03    0.43574E-04   -0.33018E-02  2838   0.790E-01    0.270E-02
DAV:   2    -0.145651863766E+03   -0.66730E-04   -0.83695E-04  3140   0.118E-01    0.146E-02
DAV:   3    -0.145651856423E+03    0.73430E-05   -0.15681E-05  1888   0.241E-02    0.109E-02
DAV:   4    -0.145651844365E+03    0.12058E-04   -0.16298E-05  2078   0.348E-02    0.533E-03
DAV:   5    -0.145651837906E+03    0.64587E-05   -0.10273E-05  1858   0.299E-02    0.739E-03
DAV:   6    -0.145651835117E+03    0.27888E-05   -0.87712E-06  1716   0.175E-02
  14 F= -.14565184E+03 E0= -.14565030E+03  d E =-.524777E-03
       N       E                     dE             d eps       ncg     rms          rms(c)
DAV:   1    -0.145652019929E+03   -0.18202E-03   -0.10918E-01  2808   0.139E+00    0.386E-02
DAV:   2    -0.145652220425E+03   -0.20050E-03   -0.22309E-03  3150   0.187E-01    0.241E-02
DAV:   3    -0.145652203228E+03    0.17197E-04   -0.21704E-05  2228   0.314E-02    0.169E-02
DAV:   4    -0.145652179552E+03    0.23676E-04   -0.36377E-05  2736   0.568E-02    0.573E-03
DAV:   5    -0.145652177243E+03    0.23091E-05   -0.34774E-05  2646   0.306E-02    0.793E-03
DAV:   6    -0.145652176783E+03    0.45929E-06   -0.63110E-06  1652   0.101E-02
  15 F= -.14565218E+03 E0= -.14565064E+03  d E =-.341666E-03
       N       E                     dE             d eps       ncg     rms          rms(c)
DAV:   1    -0.145651001241E+03    0.11760E-02   -0.98268E-01  2808   0.417E+00    0.122E-01
DAV:   2    -0.145652880173E+03   -0.18789E-02   -0.20679E-02  3160   0.566E-01    0.709E-02
DAV:   3    -0.145652751178E+03    0.12899E-03   -0.20349E-04  3186   0.856E-02    0.497E-02
DAV:   4    -0.145652623812E+03    0.12737E-03   -0.40291E-04  3316   0.149E-01    0.194E-02
DAV:   5    -0.145652627033E+03   -0.32213E-05   -0.24260E-04  3038   0.723E-02    0.260E-02
DAV:   6    -0.145652624091E+03    0.29420E-05   -0.25414E-05  2178   0.196E-02
  16 F= -.14565262E+03 E0= -.14565109E+03  d E =-.788974E-03
       N       E                     dE             d eps       ncg     rms          rms(c)
DAV:   1    -0.145652608663E+03    0.18370E-04   -0.27776E-01  2824   0.227E+00    0.745E-02
DAV:   2    -0.145653167439E+03   -0.55878E-03   -0.62782E-03  3034   0.312E-01    0.368E-02
DAV:   3    -0.145653125195E+03    0.42244E-04   -0.63774E-05  3104   0.486E-02    0.257E-02
DAV:   4    -0.145653079641E+03    0.45554E-04   -0.65562E-05  3034   0.751E-02    0.958E-03
DAV:   5    -0.145653061119E+03    0.18522E-04   -0.70801E-05  2918   0.548E-02    0.101E-02
DAV:   6    -0.145653050437E+03    0.10682E-04   -0.17907E-05  2104   0.222E-02    0.602E-03
DAV:   7    -0.145653014194E+03    0.36244E-04   -0.52605E-05  2954   0.620E-02    0.172E-02
DAV:   8    -0.145652995840E+03    0.18353E-04   -0.71796E-06  1948   0.415E-02    0.180E-02
DAV:   9    -0.145652957206E+03    0.38634E-04   -0.70110E-05  3242   0.110E-01    0.610E-03
DAV:  10    -0.145652934089E+03    0.23117E-04   -0.10502E-04  3810   0.144E-01    0.167E-02
DAV:  11    -0.145652920121E+03    0.13968E-04   -0.77610E-05  2976   0.643E-02    0.571E-03
DAV:  12    -0.145652917917E+03    0.22039E-05   -0.18754E-05  2344   0.396E-02
  17 F= -.14565292E+03 E0= -.14565138E+03  d E =-.293825E-03
       N       E                     dE             d eps       ncg     rms          rms(c)
DAV:   1    -0.145651795877E+03    0.11242E-02   -0.81514E-01  2824   0.387E+00    0.111E-01
DAV:   2    -0.145653452120E+03   -0.16562E-02   -0.17870E-02  3070   0.526E-01    0.634E-02
DAV:   3    -0.145653361131E+03    0.90989E-04   -0.19169E-04  3230   0.673E-02    0.441E-02
DAV:   4    -0.145653284439E+03    0.76691E-04   -0.18503E-04  3178   0.841E-02    0.156E-02
DAV:   5    -0.145653278764E+03    0.56751E-05   -0.11151E-04  3002   0.519E-02    0.158E-02
DAV:   6    -0.145653274933E+03    0.38309E-05   -0.20708E-05  2020   0.202E-02
  18 F= -.14565327E+03 E0= -.14565174E+03  d E =-.650842E-03
       N       E                     dE             d eps       ncg     rms          rms(c)
DAV:   1    -0.145653584965E+03   -0.30620E-03   -0.60339E-02  2786   0.106E+00    0.351E-02
DAV:   2    -0.145653703053E+03   -0.11809E-03   -0.13724E-03  3144   0.152E-01    0.172E-02
DAV:   3    -0.145653698651E+03    0.44017E-05   -0.32347E-05  2602   0.262E-02    0.132E-02
DAV:   4    -0.145653694567E+03    0.40841E-05   -0.10835E-05  1724   0.157E-02    0.650E-03
DAV:   5    -0.145653692108E+03    0.24587E-05   -0.74332E-06  1858   0.198E-02    0.507E-03
DAV:   6    -0.145653691001E+03    0.11077E-05   -0.43003E-06  1678   0.163E-02
  19 F= -.14565369E+03 E0= -.14565216E+03  d E =-.416067E-03
       N       E                     dE             d eps       ncg     rms          rms(c)
DAV:   1    -0.145653380166E+03    0.31194E-03   -0.54457E-01  2776   0.319E+00    0.985E-02
DAV:   2    -0.145654447141E+03   -0.10670E-02   -0.12231E-02  3128   0.452E-01    0.519E-02
DAV:   3    -0.145654398960E+03    0.48181E-04   -0.27333E-04  3262   0.739E-02    0.400E-02
DAV:   4    -0.145654348452E+03    0.50508E-04   -0.10524E-04  3034   0.446E-02    0.192E-02
DAV:   5    -0.145654305818E+03    0.42634E-04   -0.53938E-05  2956   0.671E-02    0.194E-02
DAV:   6    -0.145654274917E+03    0.30901E-04   -0.32389E-05  2458   0.673E-02    0.136E-02
DAV:   7    -0.145654255194E+03    0.19723E-04   -0.67992E-05  2834   0.640E-02    0.995E-03
DAV:   8    -0.145654232846E+03    0.22348E-04   -0.23398E-05  2402   0.379E-02    0.947E-03
DAV:   9    -0.145654174065E+03    0.58781E-04   -0.63028E-05  3234   0.142E-01    0.226E-02
DAV:  10    -0.145654128293E+03    0.45772E-04   -0.80802E-05  3388   0.152E-01    0.164E-02
DAV:  11    -0.145654124745E+03    0.35485E-05   -0.18948E-04  3052   0.105E-01    0.112E-02
DAV:  12    -0.145654125523E+03   -0.77837E-06   -0.65149E-05  2672   0.327E-02
  20 F= -.14565413E+03 E0= -.14565259E+03  d E =-.850590E-03
       N       E                     dE             d eps       ncg     rms          rms(c)
DAV:   1    -0.145654104186E+03    0.20559E-04   -0.20747E-01  2800   0.193E+00    0.568E-02
DAV:   2    -0.145654504913E+03   -0.40073E-03   -0.44609E-03  3178   0.262E-01    0.327E-02
DAV:   3    -0.145654475996E+03    0.28917E-04   -0.53984E-05  3054   0.410E-02    0.229E-02
DAV:   4    -0.145654445012E+03    0.30983E-04   -0.65151E-05  3108   0.628E-02    0.889E-03
DAV:   5    -0.145654441482E+03    0.35307E-05   -0.56788E-05  2986   0.407E-02    0.123E-02
DAV:   6    -0.145654441121E+03    0.36035E-06   -0.10396E-05  1598   0.131E-02
  21 F= -.14565444E+03 E0= -.14565291E+03  d E =-.315598E-03
       N       E                     dE             d eps       ncg     rms          rms(c)
DAV:   1    -0.145654043373E+03    0.39811E-03   -0.32334E-01  2792   0.240E+00    0.735E-02
DAV:   2    -0.145654651682E+03   -0.60831E-03   -0.68612E-03  3170   0.325E-01    0.388E-02
DAV:   3    -0.145654600762E+03    0.50920E-04   -0.75964E-05  3192   0.539E-02    0.269E-02
DAV:   4    -0.145654537078E+03    0.63684E-04   -0.11858E-04  3362   0.963E-02    0.104E-02
DAV:   5    -0.145654531323E+03    0.57552E-05   -0.11326E-04  3072   0.550E-02    0.165E-02
DAV:   6    -0.145654531353E+03   -0.29740E-07   -0.18305E-05  1942   0.165E-02
  22 F= -.14565453E+03 E0= -.14565301E+03  d E =-.405829E-03
       N       E                     dE             d eps       ncg     rms          rms(c)
DAV:   1    -0.145654725648E+03   -0.19433E-03   -0.11891E-01  2940   0.147E+00    0.498E-02
DAV:   2    -0.145654960403E+03   -0.23475E-03   -0.27464E-03  3160   0.207E-01    0.248E-02
DAV:   3    -0.145654937079E+03    0.23324E-04   -0.25410E-05  2380   0.359E-02    0.171E-02
DAV:   4    -0.145654908608E+03    0.28471E-04   -0.44332E-05  2964   0.701E-02    0.547E-03
DAV:   5    -0.145654907293E+03    0.13145E-05   -0.52984E-05  2848   0.385E-02    0.882E-03
DAV:   6    -0.145654907190E+03    0.10270E-06   -0.96434E-06  1676   0.121E-02
  23 F= -.14565491E+03 E0= -.14565339E+03  d E =-.375838E-03
       N       E                     dE             d eps       ncg     rms          rms(c)
DAV:   1    -0.145654682201E+03    0.22509E-03   -0.25473E-01  2944   0.214E+00    0.665E-02
DAV:   2    -0.145655176695E+03   -0.49449E-03   -0.57168E-03  3182   0.303E-01    0.372E-02
DAV:   3    -0.145655125667E+03    0.51028E-04   -0.85182E-05  3184   0.588E-02    0.265E-02
DAV:   4    -0.145655064544E+03    0.61123E-04   -0.45460E-05  2760   0.708E-02    0.123E-02
DAV:   5    -0.145655022702E+03    0.41842E-04   -0.55099E-05  3076   0.800E-02    0.934E-03
DAV:   6    -0.145654995413E+03    0.27289E-04   -0.58238E-05  2772   0.712E-02    0.833E-03
DAV:   7    -0.145654945312E+03    0.50101E-04   -0.18875E-05  2258   0.105E-01    0.121E-02
DAV:   8    -0.145654890214E+03    0.55098E-04   -0.58591E-05  3238   0.123E-01    0.779E-03
DAV:   9    -0.145654870322E+03    0.19892E-04   -0.50824E-05  2892   0.761E-02    0.682E-03
DAV:  10    -0.145654841234E+03    0.29087E-04   -0.33982E-05  2676   0.131E-01    0.631E-03
DAV:  11    -0.145654837558E+03    0.36763E-05   -0.71275E-05  2868   0.759E-02
  24 F= -.14565484E+03 E0= -.14565333E+03  d E =-.306205E-03
       N       E                     dE             d eps       ncg     rms          rms(c)
DAV:   1    -0.145654874106E+03   -0.32872E-04   -0.50588E-02  2968   0.956E-01    0.313E-02
DAV:   2    -0.145654975873E+03   -0.10177E-03   -0.11516E-03  3184   0.137E-01    0.163E-02
DAV:   3    -0.145654968180E+03    0.76931E-05   -0.20362E-05  1900   0.254E-02    0.105E-02
DAV:   4    -0.145654961444E+03    0.67359E-05   -0.71564E-06  1844   0.207E-02    0.469E-03
DAV:   5    -0.145654957968E+03    0.34760E-05   -0.61548E-06  1894   0.241E-02    0.286E-03
DAV:   6    -0.145654956320E+03    0.16479E-05   -0.71777E-06  1742   0.226E-02
  25 F= -.14565496E+03 E0= -.14565344E+03  d E =-.424967E-03
       N       E                     dE             d eps       ncg     rms          rms(c)
DAV:   1    -0.145654916046E+03    0.41922E-04   -0.38048E-02  2952   0.832E-01    0.241E-02
DAV:   2    -0.145654990007E+03   -0.73961E-04   -0.85646E-04  3176   0.118E-01    0.154E-02
DAV:   3    -0.145654981300E+03    0.87069E-05   -0.90652E-06  1806   0.193E-02    0.110E-02
DAV:   4    -0.145654966270E+03    0.15030E-04   -0.14412E-05  1952   0.377E-02    0.404E-03
DAV:   5    -0.145654963303E+03    0.29673E-05   -0.13359E-05  1762   0.222E-02    0.403E-03
DAV:   6    -0.145654961194E+03    0.21091E-05   -0.56599E-06  1710   0.142E-02
  26 F= -.14565496E+03 E0= -.14565344E+03  d E =-.429842E-03
       N       E                     dE             d eps       ncg     rms          rms(c)
DAV:   1    -0.145655084927E+03   -0.12162E-03   -0.25084E-02  2998   0.691E-01    0.253E-02
DAV:   2    -0.145655130403E+03   -0.45476E-04   -0.70118E-04  3150   0.117E-01    0.156E-02
DAV:   3    -0.145655121514E+03    0.88894E-05   -0.31807E-05  2552   0.298E-02    0.122E-02
DAV:   4    -0.145655111636E+03    0.98775E-05   -0.80535E-06  1808   0.200E-02    0.655E-03
DAV:   5    -0.145655099020E+03    0.12616E-04   -0.11700E-05  2016   0.399E-02    0.576E-03
DAV:   6    -0.145655093564E+03    0.54552E-05   -0.13831E-05  2092   0.345E-02
  27 F= -.14565509E+03 E0= -.14565358E+03  d E =-.132370E-03
