 vasp.5.3.5 31Mar14 (build Apr 08 2024 10:12:10) complex                        
  
 executed on             LinuxIFC date 2024.07.29  17:30:18
 running on    8 total cores
 distrk:  each k-point on    8 cores,    1 groups
 distr:  one band on NCORES_PER_BAND=   4 cores,    2 groups


--------------------------------------------------------------------------------------------------------


 INCAR:
 POTCAR:    PAW_PBE O 08Apr2002                   
 POTCAR:    PAW_PBE Mg 13Apr2007                  
 POTCAR:    PAW_PBE Al 04Jan2001                  
 POTCAR:    PAW_PBE O 08Apr2002                   
   VRHFIN =O: s2p4                                                              
   LEXCH  = PE                                                                  
   EATOM  =   432.3788 eV,   31.7789 Ry                                         
                                                                                
   TITEL  = PAW_PBE O 08Apr2002                                                 
   LULTRA =        F    use ultrasoft PP ?                                      
   IUNSCR =        1    unscreen: 0-lin 1-nonlin 2-no                           
   RPACOR =    1.200    partial core radius                                     
   POMASS =   16.000; ZVAL   =    6.000    mass and valenz                      
   RCORE  =    1.520    outmost cutoff radius                                   
   RWIGS  =    1.550; RWIGS  =    0.820    wigner-seitz radius (au A)           
   ENMAX  =  400.000; ENMIN  =  300.000 eV                                      
   ICORE  =        2    local potential                                         
   LCOR   =        T    correct aug charges                                     
   LPAW   =        T    paw PP                                                  
   EAUG   =  605.392                                                            
   DEXC   =    0.000                                                            
   RMAX   =    1.553    core radius for proj-oper                               
   RAUG   =    1.300    factor for augmentation sphere                          
   RDEP   =    1.550    radius for radial grids                                 
   RDEPT  =    1.329    core radius for aug-charge                              
                                                                                
   Atomic configuration                                                         
    4 entries                                                                   
     n  l   j            E        occ.                                          
     1  0  0.50      -514.6923   2.0000                                         
     2  0  0.50       -23.9615   2.0000                                         
     2  1  0.50        -9.0305   4.0000                                         
     3  2  1.50        -9.5241   0.0000                                         
   Description                                                                  
     l       E           TYP  RCUT    TYP  RCUT                                 
     0    -23.9615318     23  1.200                                             
     0     -9.5240782     23  1.200                                             
     1     -9.0304911     23  1.520                                             
     1      8.1634956     23  1.520                                             
     2     -9.5240782      7  1.500                                             
  local pseudopotential read in
  partial core-charges read in
  partial kinetic energy density read in
  kinetic energy density of atom read in
  atomic valenz-charges read in
  non local Contribution for L=           0  read in
    real space projection operators read in
  non local Contribution for L=           0  read in
    real space projection operators read in
  non local Contribution for L=           1  read in
    real space projection operators read in
  non local Contribution for L=           1  read in
    real space projection operators read in
    PAW grid and wavefunctions read in
 
   number of l-projection  operators is LMAX  =           4
   number of lm-projection operators is LMMAX =           8
 
 POTCAR:    PAW_PBE Mg 13Apr2007                  
   VRHFIN =Mg: s2p0                                                             
   LEXCH  = PE                                                                  
   EATOM  =    23.0369 eV,    1.6932 Ry                                         
                                                                                
   TITEL  = PAW_PBE Mg 13Apr2007                                                
   LULTRA =        F    use ultrasoft PP ?                                      
   IUNSCR =        1    unscreen: 0-lin 1-nonlin 2-no                           
   RPACOR =    1.500    partial core radius                                     
   POMASS =   24.305; ZVAL   =    2.000    mass and valenz                      
   RCORE  =    2.000    outmost cutoff radius                                   
   RWIGS  =    2.880; RWIGS  =    1.524    wigner-seitz radius (au A)           
   ENMAX  =  200.000; ENMIN  =  100.000 eV                                      
   RCLOC  =    1.506    cutoff for local pot                                    
   LCOR   =        T    correct aug charges                                     
   LPAW   =        T    paw PP                                                  
   EAUG   =  454.734                                                            
   DEXC   =    0.000                                                            
   RMAX   =    2.045    core radius for proj-oper                               
   RAUG   =    1.300    factor for augmentation sphere                          
   RDEP   =    2.025    radius for radial grids                                 
   RDEPT  =    1.942    core radius for aug-charge                              
                                                                                
   Atomic configuration                                                         
    6 entries                                                                   
     n  l   j            E        occ.                                          
     1  0  0.50     -1259.6230   2.0000                                         
     2  0  0.50       -79.8442   2.0000                                         
     2  1  1.50       -46.6121   6.0000                                         
     3  0  0.50        -4.7055   2.0000                                         
     3  1  0.50        -1.3660   0.0000                                         
     3  2  1.50        -1.3606   0.0000                                         
   Description                                                                  
     l       E           TYP  RCUT    TYP  RCUT                                 
     0     -4.7054661     23  2.000                                             
     0     27.2116520     23  2.000                                             
     1      1.3605826     23  2.000                                             
     1     27.2116520     23  2.000                                             
     2     -1.3605826     23  2.000                                             
  local pseudopotential read in
  partial core-charges read in
  partial kinetic energy density read in
  atomic valenz-charges read in
  non local Contribution for L=           0  read in
    real space projection operators read in
  non local Contribution for L=           0  read in
    real space projection operators read in
  non local Contribution for L=           1  read in
    real space projection operators read in
  non local Contribution for L=           1  read in
    real space projection operators read in
  non local Contribution for L=           2  read in
    real space projection operators read in
    PAW grid and wavefunctions read in
 
   number of l-projection  operators is LMAX  =           5
   number of lm-projection operators is LMMAX =          13
 
 POTCAR:    PAW_PBE Al 04Jan2001                  
   VRHFIN =Al: s2p1                                                             
   LEXCH  = PE                                                                  
   EATOM  =    53.5387 eV,    3.9350 Ry                                         
                                                                                
   TITEL  = PAW_PBE Al 04Jan2001                                                
   LULTRA =        F    use ultrasoft PP ?                                      
   IUNSCR =        1    unscreen: 0-lin 1-nonlin 2-no                           
   RPACOR =    1.500    partial core radius                                     
   POMASS =   26.981; ZVAL   =    3.000    mass and valenz                      
   RCORE  =    1.900    outmost cutoff radius                                   
   RWIGS  =    2.650; RWIGS  =    1.402    wigner-seitz radius (au A)           
   ENMAX  =  240.300; ENMIN  =  180.225 eV                                      
   ICORE  =        2    local potential                                         
   LCOR   =        T    correct aug charges                                     
   LPAW   =        T    paw PP                                                  
   EAUG   =  291.052                                                            
   DEXC   =    0.000                                                            
   RMAX   =    1.939    core radius for proj-oper                               
   RAUG   =    1.300    factor for augmentation sphere                          
   RDEP   =    1.966    radius for radial grids                                 
   RDEPT  =    1.856    core radius for aug-charge                              
                                                                                
   Atomic configuration                                                         
    6 entries                                                                   
     n  l   j            E        occ.                                          
     1  0  0.50     -1511.1048   2.0000                                         
     2  0  0.50      -108.1629   2.0000                                         
     2  1  1.50       -69.6402   6.0000                                         
     3  0  0.50        -7.7528   2.0000                                         
     3  1  1.50        -2.7121   1.0000                                         
     3  2  2.50        -2.7212   0.0000                                         
   Description                                                                  
     l       E           TYP  RCUT    TYP  RCUT                                 
     0     -7.7528455     23  1.900                                             
     0     -3.3096929     23  1.900                                             
     1     -2.7120682     23  1.900                                             
     1     13.6058260     23  1.900                                             
     2     -2.7211652      7  1.900                                             
  local pseudopotential read in
  partial core-charges read in
  partial kinetic energy density read in
  atomic valenz-charges read in
  non local Contribution for L=           0  read in
    real space projection operators read in
  non local Contribution for L=           0  read in
    real space projection operators read in
  non local Contribution for L=           1  read in
    real space projection operators read in
  non local Contribution for L=           1  read in
    real space projection operators read in
    PAW grid and wavefunctions read in
 
   number of l-projection  operators is LMAX  =           4
   number of lm-projection operators is LMMAX =           8
 

 ----------------------------------------------------------------------------- 
|                                                                             |
|  ADVICE TO THIS USER RUNNING 'VASP/VAMP'   (HEAR YOUR MASTER'S VOICE ...):  |
|                                                                             |
|      You have a (more or less) 'large supercell' and for larger cells       |
|      it might be more efficient to use real space projection opertators     |
|      So try LREAL= Auto  in the INCAR   file.                               |
|      Mind: At the moment your POTCAR file does not contain real space       |
|       projectors, and has to be modified,  BUT if you                       |
|      want to do an extremely  accurate calculation you might also keep the  |
|      reciprocal projection scheme          (i.e. LREAL=.FALSE.)             |
|                                                                             |
 ----------------------------------------------------------------------------- 

  PAW_PBE O 08Apr2002                   :
 energy of atom  1       EATOM= -432.3788
 kinetic energy error for atom=    0.0208 (will be added to EATOM!!)
  PAW_PBE Mg 13Apr2007                  :
 energy of atom  2       EATOM=  -23.0369
 kinetic energy error for atom=    0.0000 (will be added to EATOM!!)
  PAW_PBE Al 04Jan2001                  :
 energy of atom  3       EATOM=  -53.5387
 kinetic energy error for atom=    0.0002 (will be added to EATOM!!)
 
 
 POSCAR: Layer                                   
  positions in direct lattice
  velocities in cartesian coordinates
 exchange correlation table for  LEXCH =        8
   RHO(1)=    0.500       N(1)  =     2000
   RHO(2)=  100.500       N(2)  =     4000
 


--------------------------------------------------------------------------------------------------------


 ion  position               nearest neighbor table
   1  0.000  0.000  0.269-  14 2.13  14 2.13  14 2.13  18 2.16  18 2.16  18 2.16
   2  0.333  0.667  0.325-  11 2.13  11 2.13  11 2.13  14 2.14  14 2.14  14 2.14
   3  0.000  0.000  0.439-  15 2.14  15 2.14  15 2.14  19 2.14  19 2.14  19 2.14
   4  0.333  0.667  0.496-  12 2.14  12 2.14  12 2.14  15 2.14  15 2.14  15 2.14
   5  0.000  0.000  0.610-  20 2.13  20 2.13  20 2.13  16 2.14  16 2.14  16 2.14
   6  0.333  0.667  0.666-  16 2.14  16 2.14  16 2.14  13 2.14  13 2.14  13 2.14
   7  0.000  0.000  0.780-  21 2.13  21 2.13  21 2.13  17 2.16  17 2.16  17 2.16
   8  0.667  0.333  0.382-  19 2.14  19 2.14  19 2.14  11 2.14  11 2.14  11 2.14
   9  0.667  0.333  0.553-  12 2.13  12 2.13  12 2.13  20 2.14  20 2.14  20 2.14
  10  0.667  0.333  0.723-  21 2.13  21 2.13  21 2.13  13 2.14  13 2.14  13 2.14
  11  0.000  0.000  0.354-   2 2.13   2 2.13   2 2.13   8 2.14   8 2.14   8 2.14  14 3.04  14 3.04
                            14 3.04  19 3.05  19 3.05  19 3.05
  12  0.000  0.000  0.524-   9 2.13   9 2.13   9 2.13   4 2.14   4 2.14   4 2.14  20 3.05  20 3.05
                            20 3.05  15 3.05  15 3.05  15 3.05
  13  0.000  0.000  0.695-  10 2.14  10 2.14  10 2.14   6 2.14   6 2.14   6 2.14  21 3.05  21 3.05
                            21 3.05  16 3.05  16 3.05  16 3.05
  14  0.667  0.333  0.297-   1 2.13   1 2.13   1 2.13   2 2.14   2 2.14   2 2.14  11 3.04  11 3.04
                            11 3.04  18 3.08  18 3.08  18 3.08
  15  0.667  0.333  0.467-   3 2.14   3 2.14   3 2.14   4 2.14   4 2.14   4 2.14  12 3.05  12 3.05
                            12 3.05  19 3.05  19 3.05  19 3.05
  16  0.667  0.333  0.638-   6 2.14   6 2.14   6 2.14   5 2.14   5 2.14   5 2.14  13 3.05  13 3.05
                            13 3.05  20 3.05  20 3.05  20 3.05
  17  0.667  0.333  0.809-   7 2.16   7 2.16   7 2.16  26 3.04  26 3.04  26 3.04  21 3.08  21 3.08
                            21 3.08
  18  0.333  0.667  0.239-   1 2.16   1 2.16   1 2.16  23 3.04  23 3.04  23 3.04  14 3.08  14 3.08
                            14 3.08
  19  0.333  0.667  0.411-   8 2.14   8 2.14   8 2.14   3 2.14   3 2.14   3 2.14  11 3.05  11 3.05
                            11 3.05  15 3.05  15 3.05  15 3.05
  20  0.333  0.667  0.581-   5 2.13   5 2.13   5 2.13   9 2.14   9 2.14   9 2.14  12 3.05  12 3.05
                            12 3.05  16 3.05  16 3.05  16 3.05
  21  0.333  0.667  0.752-   7 2.13   7 2.13   7 2.13  10 2.13  10 2.13  10 2.13  13 3.05  13 3.05
                            13 3.05  17 3.08  17 3.08  17 3.08
  22  0.000  0.000  0.024-  25 2.90  25 2.90  25 2.90  27 2.90  27 2.90  27 2.90
  23  0.000  0.000  0.182-  24 2.89  24 2.89  24 2.89  18 3.04  18 3.04  18 3.04
  24  0.667  0.333  0.130-  23 2.89  23 2.89  23 2.89  25 2.90  25 2.90  25 2.90
  25  0.333  0.667  0.077-  22 2.90  22 2.90  22 2.90  24 2.90  24 2.90  24 2.90
  26  0.000  0.000  0.866-  28 2.89  28 2.89  28 2.89  17 3.04  17 3.04  17 3.04
  27  0.667  0.333  0.972-  22 2.90  22 2.90  22 2.90  28 2.90  28 2.90  28 2.90
  28  0.333  0.667  0.919-  26 2.89  26 2.89  26 2.89  27 2.90  27 2.90  27 2.90
 
  LATTYP: Found a hexagonal cell.
 ALAT       =     2.9932160299
 C/A-ratio  =    14.7430523963
  
  Lattice vectors:
  
 A1 = (   2.5922013181,  -1.4966076735,   0.0000000000)
 A2 = (   0.0000000000,   2.9932153469,   0.0000000000)
 A3 = (  -0.0000000000,   0.0000000000,  44.1291407631)


Analysis of symmetry for initial positions (statically):
=====================================================================
 Subroutine PRICEL returns:
 Original cell was already a primitive cell.
 

 Routine SETGRP: Setting up the symmetry group for a 
 hexagonal supercell.


 Subroutine GETGRP returns: Found  6 space group operations
 (whereof  6 operations were pure point group operations)
 out of a pool of 24 trial point group operations.


The static configuration has the point symmetry C_3v.


Analysis of symmetry for dynamics (positions and initial velocities):
=====================================================================
 Subroutine PRICEL returns:
 Original cell was already a primitive cell.
 

 Routine SETGRP: Setting up the symmetry group for a 
 hexagonal supercell.


 Subroutine GETGRP returns: Found  6 space group operations
 (whereof  6 operations were pure point group operations)
 out of a pool of 24 trial point group operations.


The dynamic configuration has the point symmetry C_3v.


Analysis of constrained symmetry for selective dynamics:
=====================================================================
 Subroutine PRICEL returns:
 Original cell was already a primitive cell.
 

 Routine SETGRP: Setting up the symmetry group for a 
 hexagonal supercell.


 Subroutine GETGRP returns: Found  6 space group operations
 (whereof  6 operations were pure point group operations)
 out of a pool of 24 trial point group operations.


The constrained configuration has the point symmetry C_3v.
 
 
 KPOINTS: K-Spacing Value to Generate K-Mesh: 0.02

Automatic generation of k-mesh.
Space group operators:
 irot       det(A)        alpha          n_x          n_y          n_z        tau_x        tau_y        tau_z
    1     1.000000     0.000000     1.000000     0.000000     0.000000     0.000000     0.000000     0.000000
    2     1.000000   120.000000     0.000000     0.000000    -1.000000     0.000000     0.000000     0.000000
    3     1.000000   120.000000    -0.000000     0.000000     1.000000     0.000000     0.000000     0.000000
    4    -1.000000   180.000000    -0.866025     0.500000    -0.000000     0.000000     0.000000     0.000000
    5    -1.000000   180.000000     0.000000     1.000000     0.000000     0.000000     0.000000     0.000000
    6    -1.000000   180.000000    -0.866025    -0.500000    -0.000000     0.000000     0.000000     0.000000
 
 Subroutine IBZKPT returns following result:
 ===========================================
 
 Found     21 irreducible k-points:
 
 Following reciprocal coordinates:
            Coordinates               Weight
  0.000000  0.000000  0.000000      1.000000
  0.076923  0.000000 -0.000000      6.000000
  0.153846  0.000000  0.000000      6.000000
  0.230769  0.000000  0.000000      6.000000
  0.307692  0.000000 -0.000000      6.000000
  0.384615  0.000000  0.000000      6.000000
  0.461538  0.000000  0.000000      6.000000
  0.076923  0.076923 -0.000000      6.000000
  0.153846  0.076923  0.000000     12.000000
  0.230769  0.076923 -0.000000     12.000000
  0.307692  0.076923 -0.000000     12.000000
  0.384615  0.076923 -0.000000     12.000000
  0.461538  0.076923  0.000000      6.000000
  0.153846  0.153846 -0.000000      6.000000
  0.230769  0.153846  0.000000     12.000000
  0.307692  0.153846 -0.000000     12.000000
  0.384615  0.153846  0.000000     12.000000
  0.230769  0.230769  0.000000      6.000000
  0.307692  0.230769 -0.000000     12.000000
  0.384615  0.230769  0.000000      6.000000
  0.307692  0.307692 -0.000000      6.000000
 
 Following cartesian coordinates:
            Coordinates               Weight
  0.000000  0.000000  0.000000      1.000000
  0.029675  0.000000  0.000000      6.000000
  0.059350  0.000000  0.000000      6.000000
  0.089024  0.000000  0.000000      6.000000
  0.118699  0.000000  0.000000      6.000000
  0.148374  0.000000  0.000000      6.000000
  0.178049  0.000000  0.000000      6.000000
  0.044512  0.025699  0.000000      6.000000
  0.074187  0.025699  0.000000     12.000000
  0.103862  0.025699  0.000000     12.000000
  0.133537  0.025699  0.000000     12.000000
  0.163211  0.025699  0.000000     12.000000
  0.192886  0.025699  0.000000      6.000000
  0.089024  0.051398  0.000000      6.000000
  0.118699  0.051398  0.000000     12.000000
  0.148374  0.051398  0.000000     12.000000
  0.178049  0.051398  0.000000     12.000000
  0.133537  0.077097  0.000000      6.000000
  0.163211  0.077097  0.000000     12.000000
  0.192886  0.077097  0.000000      6.000000
  0.178049  0.102797  0.000000      6.000000
 


--------------------------------------------------------------------------------------------------------




 Dimension of arrays:
   k-points           NKPTS =     21   k-points in BZ     NKDIM =     21   number of bands    NBANDS=     66
   number of dos      NEDOS =    301   number of ions     NIONS =     28
   non local maximal  LDIM  =      5   non local SUM 2l+1 LMDIM =     13
   total plane-waves  NPLWV = 193536
   max r-space proj   IRMAX =      1   max aug-charges    IRDMAX= 192266
   dimension x,y,z NGX =    24 NGY =   24 NGZ =  336
   dimension x,y,z NGXF=    48 NGYF=   48 NGZF=  672
   support grid    NGXF=    96 NGYF=   96 NGZF= 1344
   ions per type =              10  11   7
 NGX,Y,Z   is equivalent  to a cutoff of  13.33, 13.33, 12.66 a.u.
 NGXF,Y,Z  is equivalent  to a cutoff of  26.66, 26.66, 25.32 a.u.


 I would recommend the setting:
   dimension x,y,z NGX =    22 NGY =   22 NGZ =  328
 SYSTEM =  unknown system                          
 POSCAR =  Layer                                   

 Startparameter for this run:
   NWRITE =      2    write-flag & timer
   PREC   = accura    normal or accurate (medium, high low for compatibility)
   ISTART =      0    job   : 0-new  1-cont  2-samecut
   ICHARG =      2    charge: 1-file 2-atom 10-const
   ISPIN  =      1    spin polarized calculation?
   LNONCOLLINEAR =      F non collinear calculations
   LSORBIT =      F    spin-orbit coupling
   INIWAV =      1    electr: 0-lowe 1-rand  2-diag
   LASPH  =      F    aspherical Exc in radial PAW
   METAGGA=      F    non-selfconsistent MetaGGA calc.

 Electronic Relaxation 1
   ENCUT  =  520.0 eV  38.22 Ry    6.18 a.u.   5.57  5.57 82.05*2*pi/ulx,y,z
   ENINI  =  520.0     initial cutoff
   ENAUG  =  605.4 eV  augmentation charge cutoff
   NELM   =    100;   NELMIN=  6; NELMDL=  0     # of ELM steps 
   EDIFF  = 0.1E-04   stopping-criterion for ELM
   LREAL  =      F    real-space projection
   NLSPLINE    = F    spline interpolate recip. space projectors
   LCOMPAT=      F    compatible to vasp.4.4
   GGA_COMPAT  = T    GGA compatible to vasp.4.4-vasp.4.6
   LMAXPAW     = -100 max onsite density
   LMAXMIX     =    2 max onsite mixed and CHGCAR
   VOSKOWN=      0    Vosko Wilk Nusair interpolation
   ROPT   =    0.00000   0.00000   0.00000
 Ionic relaxation
   EDIFFG = -.2E-01   stopping-criterion for IOM
   NSW    =    500    number of steps for IOM
   NBLOCK =      1;   KBLOCK =    500    inner block; outer block 
   IBRION =      2    ionic relax: 0-MD 1-quasi-New 2-CG
   NFREE  =      1    steps in history (QN), initial steepest desc. (CG)
   ISIF   =      2    stress and relaxation
   IWAVPR =     11    prediction:  0-non 1-charg 2-wave 3-comb
   ISYM   =      2    0-nonsym 1-usesym 2-fastsym
   LCORR  =      T    Harris-Foulkes like correction to forces

   POTIM  = 0.5000    time-step for ionic-motion
   TEIN   =    0.0    initial temperature
   TEBEG  =    0.0;   TEEND  =   0.0 temperature during run
   SMASS  =  -3.00    Nose mass-parameter (am)
   estimated Nose-frequenzy (Omega)   =  0.10E-29 period in steps =****** mass=  -0.205E-27a.u.
   SCALEE = 1.0000    scale energy and forces
   NPACO  =    256;   APACO  = 16.0  distance and # of slots for P.C.
   PSTRESS=    0.0 pullay stress

  Mass of Ions in am
   POMASS =  16.00 24.30 26.98
  Ionic Valenz
   ZVAL   =   6.00  2.00  3.00
  Atomic Wigner-Seitz radii
   RWIGS  =  -1.00 -1.00 -1.00
  virtual crystal weights 
   VCA    =   1.00  1.00  1.00
   NELECT =     103.0000    total number of electrons
   NUPDOWN=      -1.0000    fix difference up-down

 DOS related values:
   EMIN   =  10.00;   EMAX   =-10.00  energy-range for DOS
   EFERMI =   0.00
   ISMEAR =     0;   SIGMA  =   0.05  broadening in eV -4-tet -1-fermi 0-gaus

 Electronic relaxation 2 (details)
   IALGO  =     38    algorithm
   LDIAG  =      T    sub-space diagonalisation (order eigenvalues)
   LSUBROT=      F    optimize rotation matrix (better conditioning)
   TURBO    =      0    0=normal 1=particle mesh
   IRESTART =      0    0=no restart 2=restart with 2 vectors
   NREBOOT  =      0    no. of reboots
   NMIN     =      0    reboot dimension
   EREF     =   0.00    reference energy to select bands
   IMIX   =      4    mixing-type and parameters
     AMIX     =   0.40;   BMIX     =  1.00
     AMIX_MAG =   1.60;   BMIX_MAG =  1.00
     AMIN     =   0.01
     WC   =   100.;   INIMIX=   1;  MIXPRE=   1;  MAXMIX= -45

 Intra band minimization:
   WEIMIN = 0.0010     energy-eigenvalue tresh-hold
   EBREAK =  0.38E-07  absolut break condition
   DEPER  =   0.30     relativ break condition  

   TIME   =   0.40     timestep for ELM

  volume/ion in A,a.u.               =      12.23        82.52
  Fermi-wavevector in a.u.,A,eV,Ry     =   1.096924  2.072886 16.371103  1.203242
  Thomas-Fermi vector in A             =   2.233275
 
 Write flags
   LWAVE  =      F    write WAVECAR
   LCHARG =      T    write CHGCAR
   LVTOT  =      F    write LOCPOT, total local potential
   LVHAR  =      F    write LOCPOT, Hartree potential only
   LELF   =      F    write electronic localiz. function (ELF)
   LORBIT =      0    0 simple, 1 ext, 2 COOP (PROOUT)


 Dipole corrections
   LMONO  =      F    monopole corrections only (constant potential shift)
   LDIPOL =      F    correct potential (dipole corrections)
   IDIPOL =      0    1-x, 2-y, 3-z, 4-all directions 
   EPSILON=  1.0000000 bulk dielectric constant

 Exchange correlation treatment:
   GGA     =    --    GGA type
   LEXCH   =     8    internal setting for exchange type
   VOSKOWN=      0    Vosko Wilk Nusair interpolation
   LHFCALC =     F    Hartree Fock is set to
   LHFONE  =     F    Hartree Fock one center treatment
   AEXX    =    0.0000 exact exchange contribution

 Linear response parameters
   LEPSILON=     F    determine dielectric tensor
   LRPA    =     F    only Hartree local field effects (RPA)
   LNABLA  =     F    use nabla operator in PAW spheres
   LVEL    =     F    velocity operator in full k-point grid
   LINTERFAST=   F  fast interpolation
   KINTER  =     0    interpolate to denser k-point grid
   CSHIFT  =0.1000    complex shift for real part using Kramers Kronig
   OMEGAMAX=  -1.0    maximum frequency
   DEG_THRESHOLD= 0.2000000E-02 threshold for treating states as degnerate
   RTIME   =    0.100 relaxation time in fs

 Orbital magnetization related:
   ORBITALMAG=     F  switch on orbital magnetization
   LCHIMAG   =     F  perturbation theory with respect to B field
   DQ        =  0.001000  dq finite difference perturbation B field



--------------------------------------------------------------------------------------------------------


 conjugate gradient relaxation of ions
   using selective dynamics as specified on POSCAR
 charge density and potential will be updated during run
 non-spin polarized calculation
 Variant of blocked Davidson
 Davidson routine will perform the subspace rotation
 perform sub-space diagonalisation
    after iterative eigenvector-optimisation
 modified Broyden-mixing scheme, WC =      100.0
 initial mixing is a Kerker type mixing with AMIX =  0.4000 and BMIX =      1.0000
 Hartree-type preconditioning will be used
 using additional bands           14
 reciprocal scheme for non local part
 use partial core corrections
 calculate Harris-corrections to forces 
   (improved forces if not selfconsistent)
 use gradient corrections 
 use of overlap-Matrix (Vanderbilt PP)
 Gauss-broadening in eV      SIGMA  =   0.05


--------------------------------------------------------------------------------------------------------


  energy-cutoff  :      520.00
  volume of cell :      342.40
      direct lattice vectors                 reciprocal lattice vectors
     2.592201318 -1.496607673  0.000000000     0.385772507  0.000000000  0.000000000
     0.000000000  2.993215347  0.000000000     0.192886253  0.334088892  0.000000000
    -0.000000000  0.000000000 44.129140763     0.000000000  0.000000000  0.022660763

  length of vectors
     2.993216030  2.993215347 44.129140763     0.385772507  0.385772595  0.022660763


 
 k-points in units of 2pi/SCALE and weight: K-Spacing Value to Generate K-Mesh: 0.02
   0.00000000  0.00000000  0.00000000       0.006
   0.02967481  0.00000000  0.00000000       0.036
   0.05934962  0.00000000  0.00000000       0.036
   0.08902442  0.00000000  0.00000000       0.036
   0.11869923  0.00000000  0.00000000       0.036
   0.14837404  0.00000000  0.00000000       0.036
   0.17804885  0.00000000  0.00000000       0.036
   0.04451221  0.02569915  0.00000000       0.036
   0.07418702  0.02569915  0.00000000       0.071
   0.10386183  0.02569915  0.00000000       0.071
   0.13353664  0.02569915  0.00000000       0.071
   0.16321145  0.02569915  0.00000000       0.071
   0.19288625  0.02569915  0.00000000       0.036
   0.08902442  0.05139829  0.00000000       0.036
   0.11869923  0.05139829  0.00000000       0.071
   0.14837404  0.05139829  0.00000000       0.071
   0.17804885  0.05139829  0.00000000       0.071
   0.13353664  0.07709744  0.00000000       0.036
   0.16321145  0.07709744  0.00000000       0.071
   0.19288625  0.07709744  0.00000000       0.036
   0.17804885  0.10279658  0.00000000       0.036
 
 k-points in reciprocal lattice and weights: K-Spacing Value to Generate K-Mesh: 0.02
   0.00000000  0.00000000  0.00000000       0.006
   0.07692308  0.00000000 -0.00000000       0.036
   0.15384615  0.00000000  0.00000000       0.036
   0.23076923  0.00000000  0.00000000       0.036
   0.30769231  0.00000000 -0.00000000       0.036
   0.38461538  0.00000000  0.00000000       0.036
   0.46153846  0.00000000  0.00000000       0.036
   0.07692308  0.07692308 -0.00000000       0.036
   0.15384615  0.07692308  0.00000000       0.071
   0.23076923  0.07692308 -0.00000000       0.071
   0.30769231  0.07692308 -0.00000000       0.071
   0.38461538  0.07692308 -0.00000000       0.071
   0.46153846  0.07692308  0.00000000       0.036
   0.15384615  0.15384615 -0.00000000       0.036
   0.23076923  0.15384615  0.00000000       0.071
   0.30769231  0.15384615 -0.00000000       0.071
   0.38461538  0.15384615  0.00000000       0.071
   0.23076923  0.23076923  0.00000000       0.036
   0.30769231  0.23076923 -0.00000000       0.071
   0.38461538  0.23076923  0.00000000       0.036
   0.30769231  0.30769231 -0.00000000       0.036
 
 position of ions in fractional coordinates (direct lattice) 
   0.00000000  0.00000000  0.26858144
   0.33333300  0.66666700  0.32535695
   0.00000000  0.00000000  0.43905341
   0.33333300  0.66666700  0.49589866
   0.00000000  0.00000000  0.60957138
   0.33333300  0.66666700  0.66644612
   0.00000000  0.00000000  0.78007408
   0.66666700  0.33333300  0.38219098
   0.66666700  0.33333300  0.55272338
   0.66666700  0.33333300  0.72329633
   0.00000000  0.00000000  0.35375601
   0.00000000  0.00000000  0.52432009
   0.00000000  0.00000000  0.69487915
   0.66666700  0.33333300  0.29694480
   0.66666700  0.33333300  0.46747347
   0.66666700  0.33333300  0.63802279
   0.66666700  0.33333300  0.80945533
   0.33333300  0.66666700  0.23919223
   0.33333300  0.66666700  0.41061120
   0.33333300  0.66666700  0.58116301
   0.33333300  0.66666700  0.75169407
   0.00000000  0.00000000  0.02432271
   0.00000000  0.00000000  0.18241647
   0.66666700  0.33333300  0.12998023
   0.33333300  0.66666700  0.07707691
   0.00000000  0.00000000  0.86622990
   0.66666700  0.33333300  0.97156785
   0.33333300  0.66666700  0.91867204
 
 position of ions in cartesian coordinates  (Angst):
  -0.00000000  0.00000000 11.85226826
   0.86406624  1.49660917 14.35772251
  -0.00000000  0.00000000 19.37504968
   0.86406624  1.49660917 21.88358194
  -0.00000000  0.00000000 26.89986143
   0.86406624  1.49660917 29.40969477
  -0.00000000  0.00000000 34.42399905
   1.72813508 -0.00000150 16.86575967
   1.72813508 -0.00000150 24.39120770
   1.72813508 -0.00000150 31.91844578
  -0.00000000  0.00000000 15.61094856
  -0.00000000  0.00000000 23.13779503
  -0.00000000  0.00000000 30.66441969
   1.72813508 -0.00000150 13.10391877
   1.72813508 -0.00000150 20.62920277
   1.72813508 -0.00000150 28.15539735
   1.72813508 -0.00000150 35.72056805
   0.86406624  1.49660917 10.55534774
   0.86406624  1.49660917 18.11991926
   0.86406624  1.49660917 25.64622433
   0.86406624  1.49660917 33.17161342
  -0.00000000  0.00000000  1.07334023
  -0.00000000  0.00000000  8.04988215
   1.72813508 -0.00000150  5.73591591
   0.86406624  1.49660917  3.40133803
  -0.00000000  0.00000000 38.22598125
   1.72813508 -0.00000150 42.87445451
   0.86406624  1.49660917 40.54020756
 


--------------------------------------------------------------------------------------------------------


 k-point  1 :   0.0000 0.0000 0.0000  plane waves:    9369
 k-point  2 :   0.0769 0.0000-0.0000  plane waves:    9341
 k-point  3 :   0.1538 0.0000 0.0000  plane waves:    9323
 k-point  4 :   0.2308 0.0000 0.0000  plane waves:    9262
 k-point  5 :   0.3077 0.0000-0.0000  plane waves:    9214
 k-point  6 :   0.3846 0.0000 0.0000  plane waves:    9170
 k-point  7 :   0.4615 0.0000 0.0000  plane waves:    9186
 k-point  8 :   0.0769 0.0769-0.0000  plane waves:    9315
 k-point  9 :   0.1538 0.0769 0.0000  plane waves:    9290
 k-point 10 :   0.2308 0.0769-0.0000  plane waves:    9233
 k-point 11 :   0.3077 0.0769-0.0000  plane waves:    9208
 k-point 12 :   0.3846 0.0769-0.0000  plane waves:    9164
 k-point 13 :   0.4615 0.0769 0.0000  plane waves:    9136
 k-point 14 :   0.1538 0.1538-0.0000  plane waves:    9263
 k-point 15 :   0.2308 0.1538 0.0000  plane waves:    9218
 k-point 16 :   0.3077 0.1538-0.0000  plane waves:    9196
 k-point 17 :   0.3846 0.1538 0.0000  plane waves:    9162
 k-point 18 :   0.2308 0.2308 0.0000  plane waves:    9212
 k-point 19 :   0.3077 0.2308-0.0000  plane waves:    9177
 k-point 20 :   0.3846 0.2308 0.0000  plane waves:    9204
 k-point 21 :   0.3077 0.3077-0.0000  plane waves:    9196

 maximum and minimum number of plane-waves per node :      2360     2277

 maximum number of plane-waves:      9369
 maximum index in each direction: 
   IXMAX=    5   IYMAX=    5   IZMAX=   82
   IXMIN=   -6   IYMIN=   -5   IZMIN=  -82

 NGX is ok and might be reduce to  24
 NGY is ok and might be reduce to  22
 NGZ is ok and might be reduce to 330

 parallel 3D FFT for wavefunctions:
    minimum data exchange during FFTs selected (reduces bandwidth)
 parallel 3D FFT for charge:
    minimum data exchange during FFTs selected (reduces bandwidth)


 total amount of memory used by VASP on root node   154192. kBytes
========================================================================

   base      :      30000. kBytes
   nonl-proj :      16324. kBytes
   fftplans  :      57933. kBytes
   grid      :      23224. kBytes
   one-center:         56. kBytes
   wavefun   :      26655. kBytes
 
     INWAV:  cpu time    0.00: real time    0.00
 Broyden mixing: mesh for mixing (old mesh)
   NGX = 11   NGY = 11   NGZ =165
  (NGX  = 48   NGY  = 48   NGZ  =672)
  gives a total of  19965 points

 initial charge density was supplied:
 charge density of overlapping atoms calculated
 number of electron     103.0000000 magnetization 
 keeping initial charge density in first step


--------------------------------------------------------------------------------------------------------


 Maximum index for augmentation-charges        23151 (set IRDMAX)


--------------------------------------------------------------------------------------------------------


 First call to EWALD:  gamma=   0.253
 Maximum number of real-space cells 7x 7x 1
 Maximum number of reciprocal cells 1x 1x15

 FEWALD executed in parallel
    FEWALD:  cpu time    0.00: real time    0.00


----------------------------------------- Iteration    1(   1)  ---------------------------------------


    POTLOK:  cpu time    0.11: real time    0.11
    SETDIJ:  cpu time    0.11: real time    0.11
     EDDAV:  cpu time    4.92: real time    4.97
       DOS:  cpu time    0.00: real time    0.00
    --------------------------------------------
      LOOP:  cpu time    5.14: real time    5.19

 eigenvalue-minimisations  :  2780
 total energy-change (2. order) : 0.5196039E+03  (-0.4564069E+04)
 number of electron     103.0000000 magnetization 
 augmentation part      103.0000000 magnetization 

 Free energy of the ion-electron system (eV)
  ---------------------------------------------------
  alpha Z        PSCENC =       141.77139955
  Ewald energy   TEWEN  =     15000.57900371
  -Hartree energ DENC   =    -20250.01893951
  -exchange      EXHF   =         0.00000000
  -V(xc)+E(xc)   XCENC  =      -439.39110642
  PAW double counting   =      4647.26951674    -3871.08436696
  entropy T*S    EENTRO =        -0.00436381
  eigenvalues    EBANDS =       338.72819098
  atomic energy  EATOM  =      4951.75456612
  ---------------------------------------------------
  free energy    TOTEN  =       519.60390039 eV

  energy without entropy =      519.60826420  energy(sigma->0) =      519.60608230


--------------------------------------------------------------------------------------------------------




----------------------------------------- Iteration    1(   2)  ---------------------------------------


     EDDAV:  cpu time    5.48: real time    5.49
       DOS:  cpu time    0.00: real time    0.00
    --------------------------------------------
      LOOP:  cpu time    5.48: real time    5.49

 eigenvalue-minimisations  :  3562
 total energy-change (2. order) :-0.6225078E+03  (-0.5926657E+03)
 number of electron     103.0000000 magnetization 
 augmentation part      103.0000000 magnetization 

 Free energy of the ion-electron system (eV)
  ---------------------------------------------------
  alpha Z        PSCENC =       141.77139955
  Ewald energy   TEWEN  =     15000.57900371
  -Hartree energ DENC   =    -20250.01893951
  -exchange      EXHF   =         0.00000000
  -V(xc)+E(xc)   XCENC  =      -439.39110642
  PAW double counting   =      4647.26951674    -3871.08436696
  entropy T*S    EENTRO =        -0.00622408
  eigenvalues    EBANDS =      -283.77775996
  atomic energy  EATOM  =      4951.75456612
  ---------------------------------------------------
  free energy    TOTEN  =      -102.90391083 eV

  energy without entropy =     -102.89768674  energy(sigma->0) =     -102.90079878


--------------------------------------------------------------------------------------------------------




----------------------------------------- Iteration    1(   3)  ---------------------------------------


     EDDAV:  cpu time    5.18: real time    5.19
       DOS:  cpu time    0.00: real time    0.00
    --------------------------------------------
      LOOP:  cpu time    5.18: real time    5.19

 eigenvalue-minimisations  :  3224
 total energy-change (2. order) :-0.5820637E+02  (-0.5788506E+02)
 number of electron     103.0000000 magnetization 
 augmentation part      103.0000000 magnetization 

 Free energy of the ion-electron system (eV)
  ---------------------------------------------------
  alpha Z        PSCENC =       141.77139955
  Ewald energy   TEWEN  =     15000.57900371
  -Hartree energ DENC   =    -20250.01893951
  -exchange      EXHF   =         0.00000000
  -V(xc)+E(xc)   XCENC  =      -439.39110642
  PAW double counting   =      4647.26951674    -3871.08436696
  entropy T*S    EENTRO =        -0.00420199
  eigenvalues    EBANDS =      -341.98614990
  atomic energy  EATOM  =      4951.75456612
  ---------------------------------------------------
  free energy    TOTEN  =      -161.11027867 eV

  energy without entropy =     -161.10607668  energy(sigma->0) =     -161.10817768


--------------------------------------------------------------------------------------------------------




----------------------------------------- Iteration    1(   4)  ---------------------------------------


     EDDAV:  cpu time    5.19: real time    5.19
       DOS:  cpu time    0.00: real time    0.00
    --------------------------------------------
      LOOP:  cpu time    5.19: real time    5.19

 eigenvalue-minimisations  :  3200
 total energy-change (2. order) :-0.7662469E+00  (-0.7650956E+00)
 number of electron     103.0000000 magnetization 
 augmentation part      103.0000000 magnetization 

 Free energy of the ion-electron system (eV)
  ---------------------------------------------------
  alpha Z        PSCENC =       141.77139955
  Ewald energy   TEWEN  =     15000.57900371
  -Hartree energ DENC   =    -20250.01893951
  -exchange      EXHF   =         0.00000000
  -V(xc)+E(xc)   XCENC  =      -439.39110642
  PAW double counting   =      4647.26951674    -3871.08436696
  entropy T*S    EENTRO =        -0.00425702
  eigenvalues    EBANDS =      -342.75234177
  atomic energy  EATOM  =      4951.75456612
  ---------------------------------------------------
  free energy    TOTEN  =      -161.87652557 eV

  energy without entropy =     -161.87226855  energy(sigma->0) =     -161.87439706


--------------------------------------------------------------------------------------------------------




----------------------------------------- Iteration    1(   5)  ---------------------------------------


     EDDAV:  cpu time    5.40: real time    5.41
       DOS:  cpu time    0.00: real time    0.00
    CHARGE:  cpu time    0.40: real time    0.40
    MIXING:  cpu time    0.01: real time    0.01
    --------------------------------------------
      LOOP:  cpu time    5.81: real time    5.82

 eigenvalue-minimisations  :  3368
 total energy-change (2. order) :-0.1206090E-01  (-0.1205594E-01)
 number of electron     103.0000001 magnetization 
 augmentation part        7.7359178 magnetization 

 Broyden mixing:
  rms(total) = 0.23070E+01    rms(broyden)= 0.23065E+01
  rms(prec ) = 0.23605E+01
  weight for this iteration     100.00

 Free energy of the ion-electron system (eV)
  ---------------------------------------------------
  alpha Z        PSCENC =       141.77139955
  Ewald energy   TEWEN  =     15000.57900371
  -Hartree energ DENC   =    -20250.01893951
  -exchange      EXHF   =         0.00000000
  -V(xc)+E(xc)   XCENC  =      -439.39110642
  PAW double counting   =      4647.26951674    -3871.08436696
  entropy T*S    EENTRO =        -0.00426070
  eigenvalues    EBANDS =      -342.76439899
  atomic energy  EATOM  =      4951.75456612
  ---------------------------------------------------
  free energy    TOTEN  =      -161.88858647 eV

  energy without entropy =     -161.88432576  energy(sigma->0) =     -161.88645612


--------------------------------------------------------------------------------------------------------




----------------------------------------- Iteration    1(   6)  ---------------------------------------


    POTLOK:  cpu time    0.11: real time    0.11
    SETDIJ:  cpu time    0.11: real time    0.11
     EDDAV:  cpu time    5.08: real time    5.08
       DOS:  cpu time    0.00: real time    0.00
    CHARGE:  cpu time    0.40: real time    0.40
    MIXING:  cpu time    0.01: real time    0.01
    --------------------------------------------
      LOOP:  cpu time    5.69: real time    5.70

 eigenvalue-minimisations  :  3090
 total energy-change (2. order) : 0.1598153E+02  (-0.9251802E+01)
 number of electron     103.0000001 magnetization 
 augmentation part        6.2632146 magnetization 

 Broyden mixing:
  rms(total) = 0.77924E+00    rms(broyden)= 0.77831E+00
  rms(prec ) = 0.78557E+00
  weight for this iteration     100.00

 eigenvalues of (default mixing * dielectric matrix)
  average eigenvalue GAMMA=   0.8420
  0.8420

 Free energy of the ion-electron system (eV)
  ---------------------------------------------------
  alpha Z        PSCENC =       141.77139955
  Ewald energy   TEWEN  =     15000.57900371
  -Hartree energ DENC   =    -20439.77736773
  -exchange      EXHF   =         0.00000000
  -V(xc)+E(xc)   XCENC  =      -425.90331140
  PAW double counting   =      5511.31757881    -4738.62060997
  entropy T*S    EENTRO =        -0.00109630
  eigenvalues    EBANDS =      -147.02721860
  atomic energy  EATOM  =      4951.75456612
  ---------------------------------------------------
  free energy    TOTEN  =      -145.90705583 eV

  energy without entropy =     -145.90595952  energy(sigma->0) =     -145.90650768


--------------------------------------------------------------------------------------------------------




----------------------------------------- Iteration    1(   7)  ---------------------------------------


    POTLOK:  cpu time    0.10: real time    0.10
    SETDIJ:  cpu time    0.11: real time    0.11
     EDDAV:  cpu time    5.06: real time    5.07
       DOS:  cpu time    0.00: real time    0.00
    CHARGE:  cpu time    0.40: real time    0.40
    MIXING:  cpu time    0.01: real time    0.01
    --------------------------------------------
      LOOP:  cpu time    5.68: real time    5.69

 eigenvalue-minimisations  :  3038
 total energy-change (2. order) : 0.1322310E+00  (-0.1737832E+00)
 number of electron     103.0000001 magnetization 
 augmentation part        6.3064429 magnetization 

 Broyden mixing:
  rms(total) = 0.47656E+00    rms(broyden)= 0.47655E+00
  rms(prec ) = 0.48150E+00
  weight for this iteration     100.00

 eigenvalues of (default mixing * dielectric matrix)
  average eigenvalue GAMMA=   1.6413
  0.9755  2.3072

 Free energy of the ion-electron system (eV)
  ---------------------------------------------------
  alpha Z        PSCENC =       141.77139955
  Ewald energy   TEWEN  =     15000.57900371
  -Hartree energ DENC   =    -20437.55097362
  -exchange      EXHF   =         0.00000000
  -V(xc)+E(xc)   XCENC  =      -425.49743578
  PAW double counting   =      5814.74061116    -5041.58436370
  entropy T*S    EENTRO =        -0.00125520
  eigenvalues    EBANDS =      -149.98637703
  atomic energy  EATOM  =      4951.75456612
  ---------------------------------------------------
  free energy    TOTEN  =      -145.77482480 eV

  energy without entropy =     -145.77356960  energy(sigma->0) =     -145.77419720


--------------------------------------------------------------------------------------------------------




----------------------------------------- Iteration    1(   8)  ---------------------------------------


    POTLOK:  cpu time    0.11: real time    0.11
    SETDIJ:  cpu time    0.12: real time    0.12
     EDDAV:  cpu time    5.26: real time    5.27
       DOS:  cpu time    0.00: real time    0.00
    CHARGE:  cpu time    0.41: real time    0.41
    MIXING:  cpu time    0.01: real time    0.01
    --------------------------------------------
      LOOP:  cpu time    5.90: real time    5.91

 eigenvalue-minimisations  :  3264
 total energy-change (2. order) : 0.1138107E+00  (-0.5072725E-01)
 number of electron     103.0000001 magnetization 
 augmentation part        6.3589635 magnetization 

 Broyden mixing:
  rms(total) = 0.79134E-01    rms(broyden)= 0.79086E-01
  rms(prec ) = 0.84773E-01
  weight for this iteration     100.00

 eigenvalues of (default mixing * dielectric matrix)
  average eigenvalue GAMMA=   1.3978
  2.4420  0.8757  0.8757

 Free energy of the ion-electron system (eV)
  ---------------------------------------------------
  alpha Z        PSCENC =       141.77139955
  Ewald energy   TEWEN  =     15000.57900371
  -Hartree energ DENC   =    -20442.75280296
  -exchange      EXHF   =         0.00000000
  -V(xc)+E(xc)   XCENC  =      -423.88572579
  PAW double counting   =      6349.33225997    -5575.84181266
  entropy T*S    EENTRO =        -0.00245976
  eigenvalues    EBANDS =      -146.61544229
  atomic energy  EATOM  =      4951.75456612
  ---------------------------------------------------
  free energy    TOTEN  =      -145.66101413 eV

  energy without entropy =     -145.65855437  energy(sigma->0) =     -145.65978425


--------------------------------------------------------------------------------------------------------




----------------------------------------- Iteration    1(   9)  ---------------------------------------


    POTLOK:  cpu time    0.10: real time    0.10
    SETDIJ:  cpu time    0.11: real time    0.11
     EDDAV:  cpu time    5.24: real time    5.25
       DOS:  cpu time    0.00: real time    0.00
    CHARGE:  cpu time    0.40: real time    0.40
    MIXING:  cpu time    0.01: real time    0.01
    --------------------------------------------
      LOOP:  cpu time    5.86: real time    5.87

 eigenvalue-minimisations  :  3158
 total energy-change (2. order) : 0.1159275E-01  (-0.9140009E-02)
 number of electron     103.0000001 magnetization 
 augmentation part        6.3360871 magnetization 

 Broyden mixing:
  rms(total) = 0.49661E-01    rms(broyden)= 0.49659E-01
  rms(prec ) = 0.50756E-01
  weight for this iteration     100.00

 eigenvalues of (default mixing * dielectric matrix)
  average eigenvalue GAMMA=   1.4692
  2.4291  1.0047  1.0047  1.4383

 Free energy of the ion-electron system (eV)
  ---------------------------------------------------
  alpha Z        PSCENC =       141.77139955
  Ewald energy   TEWEN  =     15000.57900371
  -Hartree energ DENC   =    -20446.89263923
  -exchange      EXHF   =         0.00000000
  -V(xc)+E(xc)   XCENC  =      -423.48521431
  PAW double counting   =      6369.44916274    -5596.01489223
  entropy T*S    EENTRO =        -0.00218375
  eigenvalues    EBANDS =      -142.80862397
  atomic energy  EATOM  =      4951.75456612
  ---------------------------------------------------
  free energy    TOTEN  =      -145.64942138 eV

  energy without entropy =     -145.64723763  energy(sigma->0) =     -145.64832950


--------------------------------------------------------------------------------------------------------




----------------------------------------- Iteration    1(  10)  ---------------------------------------


    POTLOK:  cpu time    0.11: real time    0.11
    SETDIJ:  cpu time    0.11: real time    0.11
     EDDAV:  cpu time    5.20: real time    5.21
       DOS:  cpu time    0.00: real time    0.00
    CHARGE:  cpu time    0.40: real time    0.40
    MIXING:  cpu time    0.01: real time    0.01
    --------------------------------------------
      LOOP:  cpu time    5.82: real time    5.83

 eigenvalue-minimisations  :  3184
 total energy-change (2. order) : 0.9662262E-03  (-0.3603834E-02)
 number of electron     103.0000001 magnetization 
 augmentation part        6.3200988 magnetization 

 Broyden mixing:
  rms(total) = 0.24101E-01    rms(broyden)= 0.24082E-01
  rms(prec ) = 0.24681E-01
  weight for this iteration     100.00

 eigenvalues of (default mixing * dielectric matrix)
  average eigenvalue GAMMA=   1.3435
  2.4873  1.9509  0.9412  0.9412  0.3971

 Free energy of the ion-electron system (eV)
  ---------------------------------------------------
  alpha Z        PSCENC =       141.77139955
  Ewald energy   TEWEN  =     15000.57900371
  -Hartree energ DENC   =    -20448.11617727
  -exchange      EXHF   =         0.00000000
  -V(xc)+E(xc)   XCENC  =      -423.34188833
  PAW double counting   =      6353.17516834    -5579.76709056
  entropy T*S    EENTRO =        -0.00200249
  eigenvalues    EBANDS =      -141.70143422
  atomic energy  EATOM  =      4951.75456612
  ---------------------------------------------------
  free energy    TOTEN  =      -145.64845515 eV

  energy without entropy =     -145.64645266  energy(sigma->0) =     -145.64745390


--------------------------------------------------------------------------------------------------------




----------------------------------------- Iteration    1(  11)  ---------------------------------------


    POTLOK:  cpu time    0.10: real time    0.11
    SETDIJ:  cpu time    0.11: real time    0.11
     EDDAV:  cpu time    5.14: real time    5.14
       DOS:  cpu time    0.00: real time    0.00
    CHARGE:  cpu time    0.40: real time    0.40
    MIXING:  cpu time    0.01: real time    0.01
    --------------------------------------------
      LOOP:  cpu time    5.75: real time    5.76

 eigenvalue-minimisations  :  3128
 total energy-change (2. order) :-0.5869638E-03  (-0.3412967E-03)
 number of electron     103.0000001 magnetization 
 augmentation part        6.3215037 magnetization 

 Broyden mixing:
  rms(total) = 0.16523E-01    rms(broyden)= 0.16522E-01
  rms(prec ) = 0.17133E-01
  weight for this iteration     100.00

 eigenvalues of (default mixing * dielectric matrix)
  average eigenvalue GAMMA=   1.4326
  2.7805  2.2713  0.9956  0.8960  0.8960  0.7563

 Free energy of the ion-electron system (eV)
  ---------------------------------------------------
  alpha Z        PSCENC =       141.77139955
  Ewald energy   TEWEN  =     15000.57900371
  -Hartree energ DENC   =    -20447.99776664
  -exchange      EXHF   =         0.00000000
  -V(xc)+E(xc)   XCENC  =      -423.29008570
  PAW double counting   =      6332.67955393    -5559.27433114
  entropy T*S    EENTRO =        -0.00206092
  eigenvalues    EBANDS =      -141.86932101
  atomic energy  EATOM  =      4951.75456612
  ---------------------------------------------------
  free energy    TOTEN  =      -145.64904212 eV

  energy without entropy =     -145.64698120  energy(sigma->0) =     -145.64801166


--------------------------------------------------------------------------------------------------------




----------------------------------------- Iteration    1(  12)  ---------------------------------------


    POTLOK:  cpu time    0.10: real time    0.10
    SETDIJ:  cpu time    0.10: real time    0.10
     EDDAV:  cpu time    5.92: real time    5.93
       DOS:  cpu time    0.00: real time    0.00
    CHARGE:  cpu time    0.40: real time    0.41
    MIXING:  cpu time    0.01: real time    0.01
    --------------------------------------------
      LOOP:  cpu time    6.54: real time    6.55

 eigenvalue-minimisations  :  3784
 total energy-change (2. order) : 0.2092242E-03  (-0.2133437E-03)
 number of electron     103.0000001 magnetization 
 augmentation part        6.3195487 magnetization 

 Broyden mixing:
  rms(total) = 0.64203E-02    rms(broyden)= 0.64186E-02
  rms(prec ) = 0.71893E-02
  weight for this iteration     100.00

 eigenvalues of (default mixing * dielectric matrix)
  average eigenvalue GAMMA=   1.4127
  2.8634  2.4938  0.9842  0.9842  0.9261  0.9261  0.7109

 Free energy of the ion-electron system (eV)
  ---------------------------------------------------
  alpha Z        PSCENC =       141.77139955
  Ewald energy   TEWEN  =     15000.57900371
  -Hartree energ DENC   =    -20447.95989559
  -exchange      EXHF   =         0.00000000
  -V(xc)+E(xc)   XCENC  =      -423.22863842
  PAW double counting   =      6310.87544413    -5537.48613295
  entropy T*S    EENTRO =        -0.00216634
  eigenvalues    EBANDS =      -141.95241310
  atomic energy  EATOM  =      4951.75456612
  ---------------------------------------------------
  free energy    TOTEN  =      -145.64883289 eV

  energy without entropy =     -145.64666655  energy(sigma->0) =     -145.64774972


--------------------------------------------------------------------------------------------------------




----------------------------------------- Iteration    1(  13)  ---------------------------------------


    POTLOK:  cpu time    0.11: real time    0.11
    SETDIJ:  cpu time    0.10: real time    0.10
     EDDAV:  cpu time    5.21: real time    5.22
       DOS:  cpu time    0.00: real time    0.00
    CHARGE:  cpu time    0.39: real time    0.39
    MIXING:  cpu time    0.01: real time    0.01
    --------------------------------------------
      LOOP:  cpu time    5.83: real time    5.84

 eigenvalue-minimisations  :  3174
 total energy-change (2. order) : 0.4493286E-04  (-0.1590642E-03)
 number of electron     103.0000001 magnetization 
 augmentation part        6.3235843 magnetization 

 Broyden mixing:
  rms(total) = 0.52764E-02    rms(broyden)= 0.52730E-02
  rms(prec ) = 0.58929E-02
  weight for this iteration     100.00

 eigenvalues of (default mixing * dielectric matrix)
  average eigenvalue GAMMA=   1.3272
  2.9032  2.5341  1.0367  1.0367  0.9006  0.9006  0.6530  0.6530

 Free energy of the ion-electron system (eV)
  ---------------------------------------------------
  alpha Z        PSCENC =       141.77139955
  Ewald energy   TEWEN  =     15000.57900371
  -Hartree energ DENC   =    -20447.30447931
  -exchange      EXHF   =         0.00000000
  -V(xc)+E(xc)   XCENC  =      -423.25830161
  PAW double counting   =      6303.41210539    -5530.01663697
  entropy T*S    EENTRO =        -0.00222387
  eigenvalues    EBANDS =      -142.58422095
  atomic energy  EATOM  =      4951.75456612
  ---------------------------------------------------
  free energy    TOTEN  =      -145.64878796 eV

  energy without entropy =     -145.64656409  energy(sigma->0) =     -145.64767602


--------------------------------------------------------------------------------------------------------




----------------------------------------- Iteration    1(  14)  ---------------------------------------


    POTLOK:  cpu time    0.10: real time    0.10
    SETDIJ:  cpu time    0.10: real time    0.10
     EDDAV:  cpu time    5.49: real time    5.50
       DOS:  cpu time    0.00: real time    0.00
    CHARGE:  cpu time    0.40: real time    0.40
    MIXING:  cpu time    0.01: real time    0.01
    --------------------------------------------
      LOOP:  cpu time    6.11: real time    6.11

 eigenvalue-minimisations  :  3424
 total energy-change (2. order) : 0.6639422E-04  (-0.1357042E-04)
 number of electron     103.0000001 magnetization 
 augmentation part        6.3239770 magnetization 

 Broyden mixing:
  rms(total) = 0.38582E-02    rms(broyden)= 0.38580E-02
  rms(prec ) = 0.45105E-02
  weight for this iteration     100.00

 eigenvalues of (default mixing * dielectric matrix)
  average eigenvalue GAMMA=   1.3778
  2.9486  2.6004  1.3834  0.9980  0.9980  1.0520  0.6974  0.8611  0.8611

 Free energy of the ion-electron system (eV)
  ---------------------------------------------------
  alpha Z        PSCENC =       141.77139955
  Ewald energy   TEWEN  =     15000.57900371
  -Hartree energ DENC   =    -20447.15273707
  -exchange      EXHF   =         0.00000000
  -V(xc)+E(xc)   XCENC  =      -423.26155177
  PAW double counting   =      6302.07787576    -5528.68162907
  entropy T*S    EENTRO =        -0.00223059
  eigenvalues    EBANDS =      -142.73341820
  atomic energy  EATOM  =      4951.75456612
  ---------------------------------------------------
  free energy    TOTEN  =      -145.64872156 eV

  energy without entropy =     -145.64649098  energy(sigma->0) =     -145.64760627


--------------------------------------------------------------------------------------------------------




----------------------------------------- Iteration    1(  15)  ---------------------------------------


    POTLOK:  cpu time    0.10: real time    0.11
    SETDIJ:  cpu time    0.10: real time    0.10
     EDDAV:  cpu time    5.35: real time    5.36
       DOS:  cpu time    0.00: real time    0.00
    CHARGE:  cpu time    0.39: real time    0.39
    MIXING:  cpu time    0.01: real time    0.01
    --------------------------------------------
      LOOP:  cpu time    5.97: real time    5.97

 eigenvalue-minimisations  :  3326
 total energy-change (2. order) : 0.7676457E-04  (-0.9425578E-05)
 number of electron     103.0000001 magnetization 
 augmentation part        6.3238974 magnetization 

 Broyden mixing:
  rms(total) = 0.23120E-02    rms(broyden)= 0.23116E-02
  rms(prec ) = 0.29962E-02
  weight for this iteration     100.00

 eigenvalues of (default mixing * dielectric matrix)
  average eigenvalue GAMMA=   1.4199
  3.0741  2.4664  2.4664  1.0244  1.0244  0.9444  0.9444  0.7221  0.7660  0.7660

 Free energy of the ion-electron system (eV)
  ---------------------------------------------------
  alpha Z        PSCENC =       141.77139955
  Ewald energy   TEWEN  =     15000.57900371
  -Hartree energ DENC   =    -20446.94523085
  -exchange      EXHF   =         0.00000000
  -V(xc)+E(xc)   XCENC  =      -423.26237965
  PAW double counting   =      6301.57255027    -5528.17548613
  entropy T*S    EENTRO =        -0.00224472
  eigenvalues    EBANDS =      -142.94082310
  atomic energy  EATOM  =      4951.75456612
  ---------------------------------------------------
  free energy    TOTEN  =      -145.64864480 eV

  energy without entropy =     -145.64640008  energy(sigma->0) =     -145.64752244


--------------------------------------------------------------------------------------------------------




----------------------------------------- Iteration    1(  16)  ---------------------------------------


    POTLOK:  cpu time    0.11: real time    0.11
    SETDIJ:  cpu time    0.11: real time    0.11
     EDDAV:  cpu time    5.39: real time    5.40
       DOS:  cpu time    0.00: real time    0.00
    CHARGE:  cpu time    0.40: real time    0.40
    MIXING:  cpu time    0.01: real time    0.01
    --------------------------------------------
      LOOP:  cpu time    6.01: real time    6.01

 eigenvalue-minimisations  :  3374
 total energy-change (2. order) : 0.5092852E-04  (-0.1661931E-04)
 number of electron     103.0000001 magnetization 
 augmentation part        6.3229862 magnetization 

 Broyden mixing:
  rms(total) = 0.13080E-02    rms(broyden)= 0.13064E-02
  rms(prec ) = 0.20543E-02
  weight for this iteration     100.00

 eigenvalues of (default mixing * dielectric matrix)
  average eigenvalue GAMMA=   1.3951
  2.6832  2.6832  2.3912  1.2115  1.0330  1.0330  0.9640  0.9640  0.7102  0.8363
  0.8363

 Free energy of the ion-electron system (eV)
  ---------------------------------------------------
  alpha Z        PSCENC =       141.77139955
  Ewald energy   TEWEN  =     15000.57900371
  -Hartree energ DENC   =    -20446.84710866
  -exchange      EXHF   =         0.00000000
  -V(xc)+E(xc)   XCENC  =      -423.25515496
  PAW double counting   =      6302.54524083    -5529.14902835
  entropy T*S    EENTRO =        -0.00225012
  eigenvalues    EBANDS =      -143.04526198
  atomic energy  EATOM  =      4951.75456612
  ---------------------------------------------------
  free energy    TOTEN  =      -145.64859387 eV

  energy without entropy =     -145.64634375  energy(sigma->0) =     -145.64746881


--------------------------------------------------------------------------------------------------------




----------------------------------------- Iteration    1(  17)  ---------------------------------------


    POTLOK:  cpu time    0.11: real time    0.11
    SETDIJ:  cpu time    0.10: real time    0.10
     EDDAV:  cpu time    4.99: real time    5.00
       DOS:  cpu time    0.00: real time    0.00
    CHARGE:  cpu time    0.39: real time    0.39
    MIXING:  cpu time    0.01: real time    0.01
    --------------------------------------------
      LOOP:  cpu time    5.60: real time    5.61

 eigenvalue-minimisations  :  3064
 total energy-change (2. order) : 0.2614523E-04  (-0.8041002E-05)
 number of electron     103.0000001 magnetization 
 augmentation part        6.3233601 magnetization 

 Broyden mixing:
  rms(total) = 0.10377E-02    rms(broyden)= 0.10372E-02
  rms(prec ) = 0.16749E-02
  weight for this iteration     100.00

 eigenvalues of (default mixing * dielectric matrix)
  average eigenvalue GAMMA=   1.5383
  4.2677  2.8660  2.4230  1.3657  1.1858  1.1858  0.9812  0.9812  0.8158  0.7213
  0.8330  0.8330

 Free energy of the ion-electron system (eV)
  ---------------------------------------------------
  alpha Z        PSCENC =       141.77139955
  Ewald energy   TEWEN  =     15000.57900371
  -Hartree energ DENC   =    -20446.64345688
  -exchange      EXHF   =         0.00000000
  -V(xc)+E(xc)   XCENC  =      -423.25780788
  PAW double counting   =      6302.95983124    -5529.56293524
  entropy T*S    EENTRO =        -0.00226813
  eigenvalues    EBANDS =      -143.24690021
  atomic energy  EATOM  =      4951.75456612
  ---------------------------------------------------
  free energy    TOTEN  =      -145.64856773 eV

  energy without entropy =     -145.64629959  energy(sigma->0) =     -145.64743366


--------------------------------------------------------------------------------------------------------




----------------------------------------- Iteration    1(  18)  ---------------------------------------


    POTLOK:  cpu time    0.10: real time    0.10
    SETDIJ:  cpu time    0.10: real time    0.10
     EDDAV:  cpu time    4.33: real time    4.34
       DOS:  cpu time    0.00: real time    0.00
    CHARGE:  cpu time    0.40: real time    0.40
    MIXING:  cpu time    0.01: real time    0.01
    --------------------------------------------
      LOOP:  cpu time    4.95: real time    4.96

 eigenvalue-minimisations  :  2498
 total energy-change (2. order) : 0.3784203E-04  (-0.3361011E-05)
 number of electron     103.0000001 magnetization 
 augmentation part        6.3235764 magnetization 

 Broyden mixing:
  rms(total) = 0.12969E-02    rms(broyden)= 0.12968E-02
  rms(prec ) = 0.16432E-02
  weight for this iteration     100.00

 eigenvalues of (default mixing * dielectric matrix)
  average eigenvalue GAMMA=   1.5824
  4.8046  2.9260  2.4429  2.0726  1.1007  1.1007  0.8590  0.8590  0.9897  0.9897
  0.7277  0.8494  0.8494

 Free energy of the ion-electron system (eV)
  ---------------------------------------------------
  alpha Z        PSCENC =       141.77139955
  Ewald energy   TEWEN  =     15000.57900371
  -Hartree energ DENC   =    -20446.31330567
  -exchange      EXHF   =         0.00000000
  -V(xc)+E(xc)   XCENC  =      -423.25846997
  PAW double counting   =      6302.64409037    -5529.24668839
  entropy T*S    EENTRO =        -0.00228894
  eigenvalues    EBANDS =      -143.57683665
  atomic energy  EATOM  =      4951.75456612
  ---------------------------------------------------
  free energy    TOTEN  =      -145.64852988 eV

  energy without entropy =     -145.64624094  energy(sigma->0) =     -145.64738541


--------------------------------------------------------------------------------------------------------




----------------------------------------- Iteration    1(  19)  ---------------------------------------


    POTLOK:  cpu time    0.11: real time    0.11
    SETDIJ:  cpu time    0.12: real time    0.12
     EDDAV:  cpu time    4.89: real time    4.89
       DOS:  cpu time    0.00: real time    0.00
    CHARGE:  cpu time    0.40: real time    0.40
    MIXING:  cpu time    0.01: real time    0.01
    --------------------------------------------
      LOOP:  cpu time    5.52: real time    5.53

 eigenvalue-minimisations  :  2862
 total energy-change (2. order) : 0.1686498E-04  (-0.4518247E-05)
 number of electron     103.0000001 magnetization 
 augmentation part        6.3235446 magnetization 

 Broyden mixing:
  rms(total) = 0.86833E-03    rms(broyden)= 0.86824E-03
  rms(prec ) = 0.11912E-02
  weight for this iteration     100.00

 eigenvalues of (default mixing * dielectric matrix)
  average eigenvalue GAMMA=   1.5420
  5.2131  2.9534  2.4837  2.1328  1.0984  1.0984  1.1291  0.8620  0.8620  0.9149
  0.8748  0.8748  0.7292  0.3616

 Free energy of the ion-electron system (eV)
  ---------------------------------------------------
  alpha Z        PSCENC =       141.77139955
  Ewald energy   TEWEN  =     15000.57900371
  -Hartree energ DENC   =    -20446.16700918
  -exchange      EXHF   =         0.00000000
  -V(xc)+E(xc)   XCENC  =      -423.25657487
  PAW double counting   =      6302.76877972    -5529.37179144
  entropy T*S    EENTRO =        -0.00229315
  eigenvalues    EBANDS =      -143.72459347
  atomic energy  EATOM  =      4951.75456612
  ---------------------------------------------------
  free energy    TOTEN  =      -145.64851302 eV

  energy without entropy =     -145.64621987  energy(sigma->0) =     -145.64736644


--------------------------------------------------------------------------------------------------------




----------------------------------------- Iteration    1(  20)  ---------------------------------------


    POTLOK:  cpu time    0.10: real time    0.10
    SETDIJ:  cpu time    0.11: real time    0.11
     EDDAV:  cpu time    4.42: real time    4.42
       DOS:  cpu time    0.00: real time    0.00
    CHARGE:  cpu time    0.42: real time    0.42
    MIXING:  cpu time    0.01: real time    0.01
    --------------------------------------------
      LOOP:  cpu time    5.06: real time    5.06

 eigenvalue-minimisations  :  2490
 total energy-change (2. order) : 0.2089606E-04  (-0.2652027E-05)
 number of electron     103.0000001 magnetization 
 augmentation part        6.3233970 magnetization 

 Broyden mixing:
  rms(total) = 0.44279E-03    rms(broyden)= 0.44253E-03
  rms(prec ) = 0.73508E-03
  weight for this iteration     100.00

 eigenvalues of (default mixing * dielectric matrix)
  average eigenvalue GAMMA=   1.6181
  6.1333  2.9425  2.4303  2.4303  1.1864  1.1864  1.1056  1.1056  0.8133  0.8133
  0.9316  0.9316  0.7180  0.7717  0.7717

 Free energy of the ion-electron system (eV)
  ---------------------------------------------------
  alpha Z        PSCENC =       141.77139955
  Ewald energy   TEWEN  =     15000.57900371
  -Hartree energ DENC   =    -20446.00415358
  -exchange      EXHF   =         0.00000000
  -V(xc)+E(xc)   XCENC  =      -423.25266533
  PAW double counting   =      6303.38582661    -5529.99028829
  entropy T*S    EENTRO =        -0.00229777
  eigenvalues    EBANDS =      -143.88988313
  atomic energy  EATOM  =      4951.75456612
  ---------------------------------------------------
  free energy    TOTEN  =      -145.64849212 eV

  energy without entropy =     -145.64619435  energy(sigma->0) =     -145.64734324


--------------------------------------------------------------------------------------------------------




----------------------------------------- Iteration    1(  21)  ---------------------------------------


    POTLOK:  cpu time    0.11: real time    0.11
    SETDIJ:  cpu time    0.11: real time    0.11
     EDDAV:  cpu time    4.81: real time    4.82
       DOS:  cpu time    0.00: real time    0.00
    --------------------------------------------
      LOOP:  cpu time    5.04: real time    5.04

 eigenvalue-minimisations  :  2836
 total energy-change (2. order) : 0.4485942E-05  (-0.6300339E-05)
 number of electron     103.0000001 magnetization 
 augmentation part        6.3233970 magnetization 

 Free energy of the ion-electron system (eV)
  ---------------------------------------------------
  alpha Z        PSCENC =       141.77139955
  Ewald energy   TEWEN  =     15000.57900371
  -Hartree energ DENC   =    -20445.89285502
  -exchange      EXHF   =         0.00000000
  -V(xc)+E(xc)   XCENC  =      -423.25011448
  PAW double counting   =      6303.29523776    -5529.90083118
  entropy T*S    EENTRO =        -0.00230138
  eigenvalues    EBANDS =      -144.00259270
  atomic energy  EATOM  =      4951.75456612
  ---------------------------------------------------
  free energy    TOTEN  =      -145.64848764 eV

  energy without entropy =     -145.64618625  energy(sigma->0) =     -145.64733695


--------------------------------------------------------------------------------------------------------




 average (electrostatic) potential at core
  the test charge radii are     0.7215  1.0714  1.0406
  (the norm of the test charge is              1.0000)
       1 -69.9850       2 -69.8775       3 -69.8389       4 -69.8303       5 -69.8540
       6 -69.8708       7 -69.9872       8 -69.8538       9 -69.8366      10 -69.8889
      11 -35.4782      12 -35.4390      13 -35.4945      14 -35.5077      15 -35.4430
      16 -35.4778      17 -35.6864      18 -35.6861      19 -35.4598      20 -35.4543
      21 -35.5145      22 -74.2234      23 -74.0945      24 -74.1628      25 -74.1628
      26 -74.0946      27 -74.1627      28 -74.1629
 
 
 
 E-fermi :   6.5129     XC(G=0): -10.3815     alpha+bet :-12.6983


 k-point     1 :       0.0000    0.0000    0.0000
  band No.  band energies     occupation 
      1     -14.1452      2.00000
      2     -14.1064      2.00000
      3     -14.0133      2.00000
      4     -13.8924      2.00000
      5     -13.7468      2.00000
      6     -13.5878      2.00000
      7     -13.4277      2.00000
      8     -13.2796      2.00000
      9     -13.1586      2.00000
     10     -13.0605      2.00000
     11      -3.8409      2.00000
     12      -3.5138      2.00000
     13      -2.9951      2.00000
     14      -2.2821      2.00000
     15      -1.6504      2.00000
     16      -1.4578      2.00000
     17      -1.4472      2.00000
     18      -1.0097      2.00000
     19      -0.8870      2.00000
     20      -0.2778      2.00000
     21      -0.1982      2.00000
     22       0.4720      2.00000
     23       0.6904      2.00000
     24       1.4450      2.00000
     25       1.4904      2.00000
     26       2.2000      2.00000
     27       2.4016      2.00000
     28       2.4016      2.00000
     29       2.4187      2.00000
     30       2.4187      2.00000
     31       2.4568      2.00000
     32       2.4716      2.00000
     33       2.4716      2.00000
     34       2.5338      2.00000
     35       2.5338      2.00000
     36       2.6088      2.00000
     37       2.6088      2.00000
     38       2.6888      2.00000
     39       2.6888      2.00000
     40       2.7592      2.00000
     41       2.7677      2.00000
     42       2.7677      2.00000
     43       2.8397      2.00000
     44       2.8397      2.00000
     45       2.9000      2.00000
     46       2.9000      2.00000
     47       2.9568      2.00000
     48       2.9568      2.00000
     49       4.0990      2.00000
     50       5.4524      2.00000
     51       6.7324      0.00000
     52       7.4558      0.00000
     53       7.6187      0.00000
     54       8.3242      0.00000
     55       8.4336      0.00000
     56       9.3113      0.00000
     57       9.3452      0.00000
     58      10.0658      0.00000
     59      10.1793      0.00000
     60      10.5664      0.00000
     61      10.6071      0.00000
     62      10.7031      0.00000
     63      11.6522      0.00000
     64      13.2123      0.00000
     65      14.6296      0.00000
     66      14.7081      0.00000

 k-point     2 :       0.0769    0.0000   -0.0000
  band No.  band energies     occupation 
      1     -14.0923      2.00000
      2     -14.0547      2.00000
      3     -13.9636      2.00000
      4     -13.8457      2.00000
      5     -13.7037      2.00000
      6     -13.5488      2.00000
      7     -13.3931      2.00000
      8     -13.2491      2.00000
      9     -13.1317      2.00000
     10     -13.0361      2.00000
     11      -3.7107      2.00000
     12      -3.3840      2.00000
     13      -2.8660      2.00000
     14      -2.1556      2.00000
     15      -1.5578      2.00000
     16      -1.3691      2.00000
     17      -1.3606      2.00000
     18      -0.9316      2.00000
     19      -0.8203      2.00000
     20      -0.2369      2.00000
     21      -0.1303      2.00000
     22       0.5007      2.00000
     23       0.6939      2.00000
     24       1.4240      2.00000
     25       1.4688      2.00000
     26       2.0784      2.00000
     27       2.1754      2.00000
     28       2.1947      2.00000
     29       2.2582      2.00000
     30       2.2901      2.00000
     31       2.3422      2.00000
     32       2.3577      2.00000
     33       2.3749      2.00000
     34       2.4212      2.00000
     35       2.4282      2.00000
     36       2.4909      2.00000
     37       2.5153      2.00000
     38       2.5665      2.00000
     39       2.5666      2.00000
     40       2.6388      2.00000
     41       2.6474      2.00000
     42       2.7170      2.00000
     43       2.7270      2.00000
     44       2.7522      2.00000
     45       2.7996      2.00000
     46       2.8114      2.00000
     47       2.8604      2.00000
     48       2.9176      2.00000
     49       4.2277      2.00000
     50       5.5965      2.00000
     51       6.9248      0.00000
     52       7.7709      0.00000
     53       7.8957      0.00000
     54       8.5325      0.00000
     55       8.6681      0.00000
     56       9.5097      0.00000
     57       9.5571      0.00000
     58      10.2905      0.00000
     59      10.3982      0.00000
     60      10.8342      0.00000
     61      10.8451      0.00000
     62      10.9795      0.00000
     63      11.7761      0.00000
     64      13.2269      0.00000
     65      13.9119      0.00000
     66      14.2190      0.00000

 k-point     3 :       0.1538    0.0000    0.0000
  band No.  band energies     occupation 
      1     -13.9406      2.00000
      2     -13.9065      2.00000
      3     -13.8216      2.00000
      4     -13.7126      2.00000
      5     -13.5814      2.00000
      6     -13.4389      2.00000
      7     -13.2960      2.00000
      8     -13.1644      2.00000
      9     -13.0571      2.00000
     10     -12.9685      2.00000
     11      -3.3209      2.00000
     12      -2.9953      2.00000
     13      -2.4799      2.00000
     14      -1.7789      2.00000
     15      -1.3004      2.00000
     16      -1.1441      2.00000
     17      -1.0858      2.00000
     18      -0.7044      2.00000
     19      -0.6476      2.00000
     20      -0.1420      2.00000
     21       0.0055      2.00000
     22       0.5681      2.00000
     23       0.6123      2.00000
     24       1.1383      2.00000
     25       1.3119      2.00000
     26       1.5832      2.00000
     27       1.5974      2.00000
     28       1.6608      2.00000
     29       1.7194      2.00000
     30       1.7477      2.00000
     31       1.8950      2.00000
     32       1.9293      2.00000
     33       2.1214      2.00000
     34       2.2334      2.00000
     35       2.2392      2.00000
[...]
     17      -0.5714      2.00000
     18      -0.4924      2.00000
     19      -0.3561      2.00000
     20      -0.2133      2.00000
     21       0.1818      2.00000
     22       0.3141      2.00000
     23       0.4540      2.00000
     24       0.5974      2.00000
     25       0.7739      2.00000
     26       0.7815      2.00000
     27       0.8630      2.00000
     28       0.9297      2.00000
     29       0.9425      2.00000
     30       0.9950      2.00000
     31       1.1193      2.00000
     32       1.1942      2.00000
     33       1.2305      2.00000
     34       1.3223      2.00000
     35       1.3812      2.00000
     36       1.5368      2.00000
     37       1.6632      2.00000
     38       1.7190      2.00000
     39       1.8021      2.00000
     40       1.8407      2.00000
     41       1.8910      2.00000
     42       1.9777      2.00000
     43       2.0783      2.00000
     44       2.5553      2.00000
     45       3.4437      2.00000
     46       4.1930      2.00000
     47       4.4413      2.00000
     48       4.5203      2.00000
     49       5.0021      2.00000
     50       5.5155      2.00000
     51       5.7781      2.00000
     52       5.8321      2.00000
     53       6.0828      2.00000
     54       6.5016      1.67642
     55       6.7043      0.00000
     56       6.8956      0.00000
     57       7.3452      0.00000
     58       7.7609      0.00000
     59       8.2496      0.00000
     60       8.4645      0.00000
     61       8.7969      0.00000
     62       9.3795      0.00000
     63       9.6051      0.00000
     64       9.9388      0.00000
     65      10.5787      0.00000
     66      10.8521      0.00000

 k-point    20 :       0.3846    0.2308    0.0000
  band No.  band energies     occupation 
      1     -12.8988      2.00000
      2     -12.8906      2.00000
      3     -12.8715      2.00000
      4     -12.8593      2.00000
      5     -12.8421      2.00000
      6     -12.8233      2.00000
      7     -12.8028      2.00000
      8     -12.7831      2.00000
      9     -12.7668      2.00000
     10     -12.7487      2.00000
     11      -1.0119      2.00000
     12      -0.9314      2.00000
     13      -0.7945      2.00000
     14      -0.6354      2.00000
     15      -0.5662      2.00000
     16      -0.5488      2.00000
     17      -0.5099      2.00000
     18      -0.4969      2.00000
     19      -0.4552      2.00000
     20      -0.4328      2.00000
     21       0.3680      2.00000
     22       0.4019      2.00000
     23       0.4425      2.00000
     24       0.4598      2.00000
     25       0.5266      2.00000
     26       0.5407      2.00000
     27       0.5853      2.00000
     28       0.7378      2.00000
     29       0.8964      2.00000
     30       1.0604      2.00000
     31       1.2977      2.00000
     32       1.3090      2.00000
     33       1.5065      2.00000
     34       1.5165      2.00000
     35       1.6248      2.00000
     36       1.6409      2.00000
     37       1.7841      2.00000
     38       1.8844      2.00000
     39       1.9448      2.00000
     40       1.9500      2.00000
     41       2.4544      2.00000
     42       2.4561      2.00000
     43       2.7870      2.00000
     44       2.7991      2.00000
     45       3.2801      2.00000
     46       3.3241      2.00000
     47       3.9958      2.00000
     48       4.0117      2.00000
     49       4.7477      2.00000
     50       5.0549      2.00000
     51       5.6635      2.00000
     52       5.7641      2.00000
     53       5.9790      2.00000
     54       6.0790      2.00000
     55       6.5095      1.55426
     56       6.9362      0.00000
     57       7.0374      0.00000
     58       7.5107      0.00000
     59       8.0567      0.00000
     60       8.2791      0.00000
     61       8.4709      0.00000
     62       9.0892      0.00000
     63       9.8182      0.00000
     64       9.8786      0.00000
     65      10.1455      0.00000
     66      11.0324      0.00000

 k-point    21 :       0.3077    0.3077   -0.0000
  band No.  band energies     occupation 
      1     -12.8712      2.00000
      2     -12.8640      2.00000
      3     -12.8410      2.00000
      4     -12.8302      2.00000
      5     -12.8189      2.00000
      6     -12.8054      2.00000
      7     -12.7912      2.00000
      8     -12.7780      2.00000
      9     -12.7661      2.00000
     10     -12.7521      2.00000
     11      -0.6597      2.00000
     12      -0.6554      2.00000
     13      -0.5914      2.00000
     14      -0.5814      2.00000
     15      -0.4807      2.00000
     16      -0.4686      2.00000
     17      -0.3597      2.00000
     18      -0.2628      2.00000
     19      -0.2175      2.00000
     20      -0.1613      2.00000
     21      -0.0497      2.00000
     22       0.0041      2.00000
     23       0.1368      2.00000
     24       0.1665      2.00000
     25       0.2951      2.00000
     26       0.3304      2.00000
     27       0.4294      2.00000
     28       0.5013      2.00000
     29       0.5972      2.00000
     30       0.6286      2.00000
     31       1.2982      2.00000
     32       1.3165      2.00000
     33       1.5091      2.00000
     34       1.6324      2.00000
     35       1.6968      2.00000
     36       1.7231      2.00000
     37       1.7696      2.00000
     38       1.7737      2.00000
     39       1.8109      2.00000
     40       1.9115      2.00000
     41       2.3312      2.00000
     42       2.6722      2.00000
     43       3.1761      2.00000
     44       3.8695      2.00000
     45       3.9449      2.00000
     46       3.9656      2.00000
     47       4.2757      2.00000
     48       4.2767      2.00000
     49       4.7322      2.00000
     50       4.7539      2.00000
     51       4.7710      2.00000
     52       5.3729      2.00000
     53       5.4992      2.00000
     54       5.7945      2.00000
     55       6.3402      2.00000
     56       6.4359      1.99557
     57       7.1700      0.00000
     58       7.3315      0.00000
     59       7.7087      0.00000
     60       8.0560      0.00000
     61       8.5081      0.00000
     62       8.8159      0.00000
     63       9.3852      0.00000
     64       9.6527      0.00000
     65      10.1502      0.00000
     66      10.6185      0.00000


--------------------------------------------------------------------------------------------------------


 soft charge-density along one line, spin component           1
         0         1         2         3         4         5         6         7         8         9
 total charge-density along one line
 
 pseudopotential strength for first ion, spin component:           1
 12.156   0.000 -14.790   0.000   0.000   0.000  -0.003   0.000  -0.000   0.000  -0.000   0.000   0.004   0.000   0.000   0.000
-14.790   0.000  18.012   0.000  -0.000   0.000   0.004   0.000   0.000   0.000   0.000   0.000  -0.004   0.000  -0.000   0.000
  0.000   0.000  -0.000   0.000  -8.291   0.000  -0.000   0.000   0.000   0.000   9.922   0.000   0.000   0.000  -0.000   0.000
 -0.003   0.000   0.004   0.000  -0.000   0.000  -8.297   0.000   0.000   0.000   0.000   0.000   9.930   0.000  -0.000   0.000
 -0.000   0.000   0.000   0.000   0.000   0.000   0.000   0.000  -8.291   0.000  -0.000   0.000  -0.000   0.000   9.922   0.000
 -0.000   0.000   0.000   0.000   9.922   0.000   0.000   0.000  -0.000   0.000 -11.711   0.000  -0.000   0.000   0.000   0.000
  0.004   0.000  -0.004   0.000   0.000   0.000   9.930   0.000  -0.000   0.000  -0.000   0.000 -11.722   0.000   0.000   0.000
  0.000   0.000  -0.000   0.000  -0.000   0.000  -0.000   0.000   9.922   0.000   0.000   0.000   0.000   0.000 -11.711   0.000
 total augmentation occupancy for first ion, spin component:           1
  2.581   0.353   0.000   0.011  -0.000   0.000   0.001  -0.000
  0.353   0.075  -0.000   0.008  -0.000   0.000  -0.003   0.000
  0.000  -0.000   2.137   0.000  -0.000   0.252  -0.000  -0.000
  0.011   0.008  -0.000   2.122  -0.000  -0.000   0.254  -0.000
 -0.000  -0.000  -0.000  -0.000   2.137  -0.000  -0.000   0.252
  0.000  -0.000   0.252  -0.000  -0.000   0.032   0.000  -0.000
  0.001  -0.003  -0.000   0.254  -0.000   0.000   0.034  -0.000
 -0.000   0.000  -0.000  -0.000   0.252   0.000  -0.000   0.032


------------------------ aborting loop because EDIFF is reached ----------------------------------------


    CHARGE:  cpu time    0.40: real time    0.40
    FORLOC:  cpu time    0.04: real time    0.04
    FORNL :  cpu time    3.48: real time    3.48
    STRESS:  cpu time    4.78: real time    4.79
    FORCOR:  cpu time    0.15: real time    0.15
    FORHAR:  cpu time    0.07: real time    0.07
    MIXING:  cpu time    0.00: real time    0.00
    OFIELD:  cpu time    0.00: real time    0.00

  FORCE on cell =-STRESS in cart. coord.  units (eV):
  Direction    XX          YY          ZZ          XY          YZ          ZX
  --------------------------------------------------------------------------------------
  Alpha Z   141.77140   141.77140   141.77140
  Ewald   18112.50448 18112.50487-20814.76686    -0.00009     0.00006    -0.00020
  Hartree 19900.89453 19900.89444-18949.76100    -0.00000     0.00000     0.00004
  E(xc)    -425.28303  -425.28304  -425.58015    -0.00000     0.00000     0.00000
  Local  -39263.53591-39263.53545 38511.60728    -0.00012    -0.00005     0.00009
  n-local   -44.25917   -58.67103   -46.64044     3.06844    -1.74576     5.45868
  augment    60.61127    60.61103    59.88916     0.00018    -0.00000     0.00000
  Kinetic  1541.05534  1502.31817  1511.18013    -0.36030    -0.36267     1.75596
  Fock        0.00000     0.00000     0.00000     0.00000     0.00000     0.00000
  -------------------------------------------------------------------------------------
  Total      -2.81536    -2.81536   -12.30048     0.00000     0.00000    -0.00000
  in kB     -13.17384   -13.17383   -57.55730     0.00000     0.00000    -0.00000
  external pressure =      -27.97 kB  Pullay stress =        0.00 kB


 VOLUME and BASIS-vectors are now :
 -----------------------------------------------------------------------------
  energy-cutoff  :      520.00
  volume of cell :      342.40
      direct lattice vectors                 reciprocal lattice vectors
     2.592201318 -1.496607673  0.000000000     0.385772507  0.000000000  0.000000000
     0.000000000  2.993215347  0.000000000     0.192886253  0.334088892  0.000000000
    -0.000000000  0.000000000 44.129140763     0.000000000  0.000000000  0.022660763

  length of vectors
     2.993216030  2.993215347 44.129140763     0.385772507  0.385772595  0.022660763


 FORCES acting on ions
    electron-ion (+dipol)            ewald-force                    non-local-force                 convergence-correction
 -----------------------------------------------------------------------------------------------
   0.271E-05 -.490E-06 0.136E+04   -.369E-05 0.291E-05 -.136E+04   -.519E-17 0.130E-17 0.113E+01   -.164E-09 0.357E-09 0.705E-01
   0.106E-02 -.184E-02 0.106E+04   0.562E-04 -.973E-04 -.106E+04   0.207E-21 0.434E-18 -.274E-03   0.416E-08 -.697E-08 0.807E-01
   -.432E-08 0.678E-09 0.455E+03   -.254E-07 0.301E-07 -.455E+03   0.298E-19 0.000E+00 -.611E-02   0.987E-10 0.140E-09 0.414E-01
   0.106E-02 -.184E-02 0.152E+03   0.562E-04 -.974E-04 -.152E+03   -.750E-19 0.136E-19 0.186E-01   0.179E-07 -.309E-07 -.137E-01
   0.456E-08 -.832E-09 -.455E+03   0.350E-07 -.409E-07 0.455E+03   -.735E-19 -.339E-20 0.166E-01   -.311E-09 0.856E-10 -.955E-01
   0.106E-02 -.184E-02 -.759E+03   0.563E-04 -.975E-04 0.759E+03   -.113E-18 0.339E-20 0.242E-01   -.520E-08 0.900E-08 -.748E-01
   -.271E-05 0.491E-06 -.136E+04   0.370E-05 -.292E-05 0.136E+04   0.607E-17 -.152E-17 -.115E+01   0.464E-09 -.606E-09 -.205E-01
   -.106E-02 0.184E-02 0.759E+03   -.563E-04 0.975E-04 -.759E+03   0.106E-18 0.678E-20 -.231E-01   -.379E-08 0.664E-08 0.626E-01
   -.106E-02 0.184E-02 -.151E+03   -.562E-04 0.974E-04 0.152E+03   -.168E-19 -.847E-21 0.431E-02   -.148E-07 0.252E-07 -.765E-01
   -.106E-02 0.184E-02 -.106E+04   -.562E-04 0.973E-04 0.106E+04   -.427E-18 0.000E+00 -.935E-02   0.424E-08 -.734E-08 -.538E-01
   -.490E-07 0.606E-07 0.304E+03   0.379E-07 -.429E-07 -.304E+03   0.204E-19 0.542E-19 -.903E-02   0.183E-09 -.319E-09 0.252E-01
   -.236E-07 0.434E-07 0.937E-02   -.374E-08 0.417E-08 0.104E-02   -.252E-19 0.271E-19 0.203E-02   -.125E-10 0.583E-10 -.162E-01
   0.215E-08 0.115E-07 -.304E+03   -.217E-07 0.247E-07 0.304E+03   -.726E-19 -.108E-18 0.637E-02   0.247E-10 -.603E-10 -.211E-01
   0.430E-04 -.745E-04 0.405E+03   -.483E-04 0.835E-04 -.405E+03   -.396E-18 0.173E-17 -.504E-01   0.303E-10 -.142E-09 0.242E-01
   0.430E-04 -.745E-04 0.101E+03   -.483E-04 0.837E-04 -.101E+03   -.117E-20 0.847E-21 0.991E-03   0.170E-09 -.446E-09 0.509E-02
   0.431E-04 -.746E-04 -.202E+03   -.484E-04 0.838E-04 0.202E+03   -.597E-19 0.000E+00 0.726E-02   -.331E-09 0.563E-09 -.305E-01
   0.314E-04 -.398E-04 -.486E+03   -.251E-04 0.270E-04 0.486E+03   0.359E-17 -.694E-17 -.157E+00   0.110E-09 -.305E-09 -.138E-02
   -.314E-04 0.398E-04 0.486E+03   0.251E-04 -.270E-04 -.486E+03   -.185E-17 -.694E-17 0.156E+00   -.144E-09 0.337E-09 0.183E-01
   -.431E-04 0.746E-04 0.202E+03   0.484E-04 -.838E-04 -.202E+03   0.588E-19 -.108E-18 -.610E-02   0.232E-09 -.368E-09 0.191E-01
   -.431E-04 0.746E-04 -.101E+03   0.483E-04 -.837E-04 0.101E+03   0.180E-19 -.542E-19 0.305E-02   -.411E-09 0.911E-09 -.311E-01
   -.431E-04 0.746E-04 -.405E+03   0.483E-04 -.835E-04 0.405E+03   -.134E-17 -.867E-18 0.481E-01   0.148E-09 -.232E-09 -.961E-02
   0.333E-09 -.742E-09 0.264E-01   0.185E-09 -.182E-09 -.270E-01   -.624E-22 0.678E-20 0.825E-04   -.520E-12 0.265E-12 0.553E-03
   -.294E-06 -.346E-07 0.516E+03   0.114E-05 -.107E-05 -.515E+03   0.409E-18 0.278E-16 -.542E+00   0.628E-11 -.377E-11 0.193E-01
   0.150E-04 -.259E-04 0.343E+03   -.326E-05 0.563E-05 -.343E+03   -.332E-17 0.347E-17 -.198E+00   0.895E-11 -.278E-10 0.112E-01
   -.149E-04 0.257E-04 0.170E+03   0.330E-05 -.568E-05 -.170E+03   0.817E-20 -.520E-17 -.108E-01   -.873E-11 0.159E-10 0.534E-02
   0.293E-06 0.352E-07 -.516E+03   -.113E-05 0.107E-05 0.515E+03   0.135E-16 0.000E+00 0.545E+00   -.609E-11 0.512E-11 -.250E-02
   0.149E-04 -.257E-04 -.170E+03   -.330E-05 0.568E-05 0.170E+03   -.751E-20 0.173E-17 0.995E-02   0.177E-12 -.627E-11 -.310E-02
   -.150E-04 0.259E-04 -.343E+03   0.326E-05 -.563E-05 0.343E+03   -.106E-16 0.347E-17 0.195E+00   0.596E-11 -.486E-11 -.367E-02
 -----------------------------------------------------------------------------------------------
   -.172E-06 0.302E-06 0.714E-01   -.503E-13 -.546E-13 -.568E-13   0.256E-18 0.183E-16 0.286E-02   0.262E-08 -.448E-08 -.703E-01
 
 
 POSITION                                       TOTAL-FORCE (eV/Angst)
 -----------------------------------------------------------------------------------
     -0.00000      0.00000     11.89724        -0.000000      0.000000      0.006369
      0.86407      1.49661     14.39527         0.000000     -0.000000     -0.009709
     -0.00000      0.00000     19.39041        -0.000000      0.000000      0.001625
      0.86407      1.49661     21.88785         0.000000     -0.000000      0.013918
     -0.00000      0.00000     26.88525        -0.000000      0.000000      0.001197
      0.86407      1.49661     29.38181        -0.000000     -0.000000      0.011774
     -0.00000      0.00000     34.37827         0.000000      0.000000     -0.013927
      1.72814     -0.00000     16.89380        -0.000000     -0.000000     -0.010832
      1.72814     -0.00000     24.38777         0.000000     -0.000000     -0.004602
      1.72814     -0.00000     31.88026        -0.000000     -0.000000      0.006307
     -0.00000      0.00000     15.64497        -0.000000      0.000000      0.000698
     -0.00000      0.00000     23.13777         0.000000      0.000000     -0.003868
     -0.00000      0.00000     30.63078        -0.000000      0.000000     -0.001862
      1.72814     -0.00000     13.14551        -0.000000      0.000000      0.011299
      1.72814     -0.00000     20.63911        -0.000000      0.000000      0.006671
      1.72814     -0.00000     28.13313        -0.000000      0.000000     -0.001387
      1.72814     -0.00000     35.67015        -0.000000      0.000000      0.002921
      0.86407      1.49661     10.60520        -0.000000      0.000000      0.001602
      0.86407      1.49661     18.14247        -0.000000      0.000000     -0.000452
      0.86407      1.49661     25.63638         0.000000      0.000000     -0.010792
      0.86407      1.49661     33.13002         0.000000      0.000000     -0.006242
     -0.00000      0.00000      1.07340        -0.000000      0.000000     -0.000145
     -0.00000      0.00000      8.08023        -0.000000      0.000000      0.014793
      1.72814     -0.00000      5.74306         0.000000      0.000000     -0.002615
      0.86407      1.49661      3.40177        -0.000000      0.000000      0.008818
     -0.00000      0.00000     38.19508         0.000000      0.000000     -0.013994
      1.72814     -0.00000     42.87421         0.000000      0.000000     -0.009206
      0.86407      1.49661     40.53286        -0.000000      0.000000      0.001638
 -----------------------------------------------------------------------------------
    total drift:                               -0.000000      0.000000      0.003881


--------------------------------------------------------------------------------------------------------



  FREE ENERGIE OF THE ION-ELECTRON SYSTEM (eV)
  ---------------------------------------------------
  free  energy   TOTEN  =      -145.65509356 eV

  energy  without entropy=     -145.65206803  energy(sigma->0) =     -145.65358080
 
 d Force = 0.1647245E-03[ 0.999E-04, 0.229E-03]  d Energy = 0.1323704E-03 0.324E-04
 d Force =-0.5368547E+01[-0.537E+01,-0.537E+01]  d Ewald  =-0.5368547E+01-0.158E-08


--------------------------------------------------------------------------------------------------------


    POTLOK:  cpu time    0.23: real time    0.23


--------------------------------------------------------------------------------------------------------


 Conjugate gradient step on ions:
 trial-energy change:   -0.000132  1 .order   -0.000165   -0.000229   -0.000100
  (g-gl).g = 0.274E-03      g.g   = 0.323E-03  gl.gl    = 0.769E-03
 g(Force)  = 0.323E-03   g(Stress)= 0.000E+00 ortho     = 0.168E-04
 gamma     =   0.35678
 trial     =   0.69776
 opt step  =   1.23610  (harmonic =   1.23610) maximal distance =0.00190899
 next E    =  -145.655164   (d E  =  -0.00020)


--------------------------------------------------------------------------------------------------------


  
 reached required accuracy - stopping structural energy minimisation
     LOOP+:  cpu time   38.68: real time   38.74
    4ORBIT:  cpu time    0.00: real time    0.00

 total amount of memory used by VASP on root node   154192. kBytes
========================================================================

   base      :      30000. kBytes
   nonl-proj :      16324. kBytes
   fftplans  :      57933. kBytes
   grid      :      23224. kBytes
   one-center:         56. kBytes
   wavefun   :      26655. kBytes
 
  
  
 General timing and accounting informations for this job:
 ========================================================
  
                  Total CPU time used (sec):     1377.427
                            User time (sec):     1359.305
                          System time (sec):       18.121
                         Elapsed time (sec):     1379.227
  
                   Maximum memory used (kb):      261044.
                   Average memory used (kb):           0.
  
                          Minor page faults:       320248
                          Major page faults:            0
                 Voluntary context switches:          289
