       N       E                     dE             d eps       ncg     rms          rms(c)
DAV:   1     0.528801451856E+03    0.52880E+03   -0.44239E+04  2696   0.134E+03
DAV:   2    -0.949903426387E+02   -0.62379E+03   -0.59186E+03  3424   0.263E+02
DAV:   3    -0.156983646521E+03   -0.61993E+02   -0.61656E+02  3128   0.899E+01
DAV:   4    -0.157978530603E+03   -0.99488E+00   -0.99296E+00  3152   0.124E+01
DAV:   5    -0.157998265483E+03   -0.19735E-01   -0.19728E-01  3208   0.171E+00    0.238E+01
DAV:   6    -0.140545355847E+03    0.17453E+02   -0.91855E+01  3112   0.328E+01    0.784E+00
DAV:   7    -0.140527866194E+03    0.17490E-01   -0.32526E+00  3000   0.616E+00    0.495E+00
DAV:   8    -0.140368855083E+03    0.15901E+00   -0.75790E-01  3040   0.444E+00    0.141E+00
DAV:   9    -0.140325909271E+03    0.42946E-01   -0.15044E-01  3112   0.193E+00    0.718E-01
DAV:  10    -0.140318043982E+03    0.78653E-02   -0.61429E-02  3064   0.832E-01    0.355E-01
DAV:  11    -0.140309747375E+03    0.82966E-02   -0.29848E-02  3064   0.745E-01    0.281E-01
DAV:  12    -0.140302982411E+03    0.67650E-02   -0.55797E-03  3544   0.493E-01    0.195E-01
DAV:  13    -0.140290090789E+03    0.12892E-01   -0.14297E-02  4320   0.107E+00    0.122E-01
DAV:  14    -0.140285597224E+03    0.44936E-02   -0.95612E-03  3168   0.599E-01    0.172E-01
DAV:  15    -0.140273572260E+03    0.12025E-01   -0.17810E-02  3736   0.146E+00    0.237E-01
DAV:  16    -0.140268029648E+03    0.55426E-02   -0.11048E-02  3328   0.103E+00    0.197E-01
DAV:  17    -0.140265139197E+03    0.28905E-02   -0.18097E-02  3272   0.944E-01    0.993E-02
DAV:  18    -0.140264247341E+03    0.89186E-03   -0.74976E-03  3224   0.629E-01    0.165E-01
DAV:  19    -0.140262818879E+03    0.14285E-02   -0.37786E-03  3464   0.540E-01    0.669E-02
DAV:  20    -0.140261429388E+03    0.13895E-02   -0.27024E-03  4160   0.802E-01    0.362E-02
DAV:  21    -0.140261337980E+03    0.91408E-04   -0.30093E-03  3360   0.495E-01    0.749E-02
DAV:  22    -0.140261522955E+03   -0.18498E-03   -0.25494E-03  2800   0.199E-01    0.878E-02
DAV:  23    -0.140261416927E+03    0.10603E-03   -0.23775E-04  3024   0.671E-02    0.513E-02
DAV:  24    -0.140261375751E+03    0.41176E-04   -0.24009E-04  2968   0.642E-02    0.154E-02
DAV:  25    -0.140261375168E+03    0.58237E-06   -0.24066E-05  2208   0.246E-02
   1 F= -.14026138E+03 E0= -.14025809E+03  d E =-.140261E+03
       N       E                     dE             d eps       ncg     rms          rms(c)
DAV:   1    -0.140261525386E+03   -0.14964E-03   -0.37344E-02  3024   0.841E-01    0.274E-02
DAV:   2    -0.140261578135E+03   -0.52748E-04   -0.94072E-04  3080   0.134E-01    0.202E-02
DAV:   3    -0.140261561362E+03    0.16772E-04   -0.56219E-05  2744   0.381E-02    0.161E-02
DAV:   4    -0.140261547127E+03    0.14236E-04   -0.18533E-05  1792   0.240E-02    0.109E-02
DAV:   5    -0.140261523256E+03    0.23871E-04   -0.23931E-05  2136   0.463E-02    0.741E-03
DAV:   6    -0.140261511765E+03    0.11491E-04   -0.20306E-05  2088   0.397E-02    0.705E-03
DAV:   7    -0.140261503886E+03    0.78792E-05   -0.22497E-05  2176   0.424E-02
   2 F= -.14026150E+03 E0= -.14025822E+03  d E =-.128718E-03
       N       E                     dE             d eps       ncg     rms          rms(c)
DAV:   1    -0.140261497175E+03    0.14590E-04   -0.24253E-04  2752   0.817E-02    0.558E-03
DAV:   2    -0.140261497503E+03   -0.32754E-06   -0.40167E-05  2664   0.273E-02    0.727E-03
DAV:   3    -0.140261495359E+03    0.21443E-05   -0.65657E-06  1728   0.842E-03    0.468E-03
DAV:   4    -0.140261493771E+03    0.15878E-05   -0.15573E-06  1640   0.574E-03    0.228E-03
DAV:   5    -0.140261491415E+03    0.23563E-05   -0.11468E-06  1648   0.140E-02    0.211E-03
DAV:   6    -0.140261489094E+03    0.23209E-05   -0.13072E-06  1632   0.165E-02
   3 F= -.14026149E+03 E0= -.14025821E+03  d E =-.113926E-03
       N       E                     dE             d eps       ncg     rms          rms(c)
DAV:   1    -0.140261487448E+03    0.39668E-05   -0.71670E-04  3008   0.136E-01    0.106E-02
DAV:   2    -0.140261495953E+03   -0.85050E-05   -0.11696E-04  2840   0.425E-02    0.884E-03
DAV:   3    -0.140261494168E+03    0.17844E-05   -0.27039E-06  1672   0.113E-02    0.623E-03
DAV:   4    -0.140261493852E+03    0.31658E-06   -0.24921E-06  1600   0.713E-03    0.356E-03
DAV:   5    -0.140261493188E+03    0.66397E-06   -0.18958E-06  1576   0.114E-02    0.105E-03
DAV:   6    -0.140261493275E+03   -0.87106E-07   -0.19918E-06  1488   0.601E-03
   4 F= -.14026149E+03 E0= -.14025821E+03  d E =-.118107E-03
