 vasp.5.3.5 31Mar14 (build Apr 08 2024 10:12:10) complex                        
  
 executed on             LinuxIFC date 2024.07.31  08:49:43
 running on    8 total cores
 distrk:  each k-point on    8 cores,    1 groups
 distr:  one band on NCORES_PER_BAND=   4 cores,    2 groups


--------------------------------------------------------------------------------------------------------


 INCAR:
 POTCAR:    PAW_PBE O 08Apr2002                   
 POTCAR:    PAW_PBE Mg 13Apr2007                  
 POTCAR:    PAW_PBE Al 04Jan2001                  
 POTCAR:    PAW_PBE O 08Apr2002                   
   VRHFIN =O: s2p4                                                              
   LEXCH  = PE                                                                  
   EATOM  =   432.3788 eV,   31.7789 Ry                                         
                                                                                
   TITEL  = PAW_PBE O 08Apr2002                                                 
   LULTRA =        F    use ultrasoft PP ?                                      
   IUNSCR =        1    unscreen: 0-lin 1-nonlin 2-no                           
   RPACOR =    1.200    partial core radius                                     
   POMASS =   16.000; ZVAL   =    6.000    mass and valenz                      
   RCORE  =    1.520    outmost cutoff radius                                   
   RWIGS  =    1.550; RWIGS  =    0.820    wigner-seitz radius (au A)           
   ENMAX  =  400.000; ENMIN  =  300.000 eV                                      
   ICORE  =        2    local potential                                         
   LCOR   =        T    correct aug charges                                     
   LPAW   =        T    paw PP                                                  
   EAUG   =  605.392                                                            
   DEXC   =    0.000                                                            
   RMAX   =    1.553    core radius for proj-oper                               
   RAUG   =    1.300    factor for augmentation sphere                          
   RDEP   =    1.550    radius for radial grids                                 
   RDEPT  =    1.329    core radius for aug-charge                              
                                                                                
   Atomic configuration                                                         
    4 entries                                                                   
     n  l   j            E        occ.                                          
     1  0  0.50      -514.6923   2.0000                                         
     2  0  0.50       -23.9615   2.0000                                         
     2  1  0.50        -9.0305   4.0000                                         
     3  2  1.50        -9.5241   0.0000                                         
   Description                                                                  
     l       E           TYP  RCUT    TYP  RCUT                                 
     0    -23.9615318     23  1.200                                             
     0     -9.5240782     23  1.200                                             
     1     -9.0304911     23  1.520                                             
     1      8.1634956     23  1.520                                             
     2     -9.5240782      7  1.500                                             
  local pseudopotential read in
  partial core-charges read in
  partial kinetic energy density read in
  kinetic energy density of atom read in
  atomic valenz-charges read in
  non local Contribution for L=           0  read in
    real space projection operators read in
  non local Contribution for L=           0  read in
    real space projection operators read in
  non local Contribution for L=           1  read in
    real space projection operators read in
  non local Contribution for L=           1  read in
    real space projection operators read in
    PAW grid and wavefunctions read in
 
   number of l-projection  operators is LMAX  =           4
   number of lm-projection operators is LMMAX =           8
 
 POTCAR:    PAW_PBE Mg 13Apr2007                  
   VRHFIN =Mg: s2p0                                                             
   LEXCH  = PE                                                                  
   EATOM  =    23.0369 eV,    1.6932 Ry                                         
                                                                                
   TITEL  = PAW_PBE Mg 13Apr2007                                                
   LULTRA =        F    use ultrasoft PP ?                                      
   IUNSCR =        1    unscreen: 0-lin 1-nonlin 2-no                           
   RPACOR =    1.500    partial core radius                                     
   POMASS =   24.305; ZVAL   =    2.000    mass and valenz                      
   RCORE  =    2.000    outmost cutoff radius                                   
   RWIGS  =    2.880; RWIGS  =    1.524    wigner-seitz radius (au A)           
   ENMAX  =  200.000; ENMIN  =  100.000 eV                                      
   RCLOC  =    1.506    cutoff for local pot                                    
   LCOR   =        T    correct aug charges                                     
   LPAW   =        T    paw PP                                                  
   EAUG   =  454.734                                                            
   DEXC   =    0.000                                                            
   RMAX   =    2.045    core radius for proj-oper                               
   RAUG   =    1.300    factor for augmentation sphere                          
   RDEP   =    2.025    radius for radial grids                                 
   RDEPT  =    1.942    core radius for aug-charge                              
                                                                                
   Atomic configuration                                                         
    6 entries                                                                   
     n  l   j            E        occ.                                          
     1  0  0.50     -1259.6230   2.0000                                         
     2  0  0.50       -79.8442   2.0000                                         
     2  1  1.50       -46.6121   6.0000                                         
     3  0  0.50        -4.7055   2.0000                                         
     3  1  0.50        -1.3660   0.0000                                         
     3  2  1.50        -1.3606   0.0000                                         
   Description                                                                  
     l       E           TYP  RCUT    TYP  RCUT                                 
     0     -4.7054661     23  2.000                                             
     0     27.2116520     23  2.000                                             
     1      1.3605826     23  2.000                                             
     1     27.2116520     23  2.000                                             
     2     -1.3605826     23  2.000                                             
  local pseudopotential read in
  partial core-charges read in
  partial kinetic energy density read in
  atomic valenz-charges read in
  non local Contribution for L=           0  read in
    real space projection operators read in
  non local Contribution for L=           0  read in
    real space projection operators read in
  non local Contribution for L=           1  read in
    real space projection operators read in
  non local Contribution for L=           1  read in
    real space projection operators read in
  non local Contribution for L=           2  read in
    real space projection operators read in
    PAW grid and wavefunctions read in
 
   number of l-projection  operators is LMAX  =           5
   number of lm-projection operators is LMMAX =          13
 
 POTCAR:    PAW_PBE Al 04Jan2001                  
   VRHFIN =Al: s2p1                                                             
   LEXCH  = PE                                                                  
   EATOM  =    53.5387 eV,    3.9350 Ry                                         
                                                                                
   TITEL  = PAW_PBE Al 04Jan2001                                                
   LULTRA =        F    use ultrasoft PP ?                                      
   IUNSCR =        1    unscreen: 0-lin 1-nonlin 2-no                           
   RPACOR =    1.500    partial core radius                                     
   POMASS =   26.981; ZVAL   =    3.000    mass and valenz                      
   RCORE  =    1.900    outmost cutoff radius                                   
   RWIGS  =    2.650; RWIGS  =    1.402    wigner-seitz radius (au A)           
   ENMAX  =  240.300; ENMIN  =  180.225 eV                                      
   ICORE  =        2    local potential                                         
   LCOR   =        T    correct aug charges                                     
   LPAW   =        T    paw PP                                                  
   EAUG   =  291.052                                                            
   DEXC   =    0.000                                                            
   RMAX   =    1.939    core radius for proj-oper                               
   RAUG   =    1.300    factor for augmentation sphere                          
   RDEP   =    1.966    radius for radial grids                                 
   RDEPT  =    1.856    core radius for aug-charge                              
                                                                                
   Atomic configuration                                                         
    6 entries                                                                   
     n  l   j            E        occ.                                          
     1  0  0.50     -1511.1048   2.0000                                         
     2  0  0.50      -108.1629   2.0000                                         
     2  1  1.50       -69.6402   6.0000                                         
     3  0  0.50        -7.7528   2.0000                                         
     3  1  1.50        -2.7121   1.0000                                         
     3  2  2.50        -2.7212   0.0000                                         
   Description                                                                  
     l       E           TYP  RCUT    TYP  RCUT                                 
     0     -7.7528455     23  1.900                                             
     0     -3.3096929     23  1.900                                             
     1     -2.7120682     23  1.900                                             
     1     13.6058260     23  1.900                                             
     2     -2.7211652      7  1.900                                             
  local pseudopotential read in
  partial core-charges read in
  partial kinetic energy density read in
  atomic valenz-charges read in
  non local Contribution for L=           0  read in
    real space projection operators read in
  non local Contribution for L=           0  read in
    real space projection operators read in
  non local Contribution for L=           1  read in
    real space projection operators read in
  non local Contribution for L=           1  read in
    real space projection operators read in
    PAW grid and wavefunctions read in
 
   number of l-projection  operators is LMAX  =           4
   number of lm-projection operators is LMMAX =           8
 

 ----------------------------------------------------------------------------- 
|                                                                             |
|  ADVICE TO THIS USER RUNNING 'VASP/VAMP'   (HEAR YOUR MASTER'S VOICE ...):  |
|                                                                             |
|      You have a (more or less) 'large supercell' and for larger cells       |
|      it might be more efficient to use real space projection opertators     |
|      So try LREAL= Auto  in the INCAR   file.                               |
|      Mind: At the moment your POTCAR file does not contain real space       |
|       projectors, and has to be modified,  BUT if you                       |
|      want to do an extremely  accurate calculation you might also keep the  |
|      reciprocal projection scheme          (i.e. LREAL=.FALSE.)             |
|                                                                             |
 ----------------------------------------------------------------------------- 

  PAW_PBE O 08Apr2002                   :
 energy of atom  1       EATOM= -432.3788
 kinetic energy error for atom=    0.0208 (will be added to EATOM!!)
  PAW_PBE Mg 13Apr2007                  :
 energy of atom  2       EATOM=  -23.0369
 kinetic energy error for atom=    0.0000 (will be added to EATOM!!)
  PAW_PBE Al 04Jan2001                  :
 energy of atom  3       EATOM=  -53.5387
 kinetic energy error for atom=    0.0002 (will be added to EATOM!!)
 
 
 POSCAR: Layer                                   
  positions in direct lattice
  velocities in cartesian coordinates
 exchange correlation table for  LEXCH =        8
   RHO(1)=    0.500       N(1)  =     2000
   RHO(2)=  100.500       N(2)  =     4000
 


--------------------------------------------------------------------------------------------------------


 ion  position               nearest neighbor table
   1  0.000  0.000  0.270-  21 1.73  14 2.07  14 2.07  14 2.07
   2  0.333  0.667  0.325-  11 2.13  11 2.13  11 2.13  14 2.13  14 2.13  14 2.13
   3  0.000  0.000  0.440-  15 2.13  15 2.13  15 2.13  17 2.13  17 2.13  17 2.13
   4  0.333  0.667  0.497-  12 2.13  12 2.13  12 2.13  15 2.13  15 2.13  15 2.13
   5  0.000  0.000  0.612-  16 2.13  18 2.13  16 2.13  16 2.13  18 2.13  18 2.13
   6  0.333  0.667  0.670-  16 2.13  16 2.13  16 2.13  13 2.13  13 2.13  13 2.13
   7  0.000  0.000  0.782-  24 1.73  19 2.07  19 2.07  19 2.07
   8  0.667  0.333  0.383-  17 2.13  17 2.13  17 2.13  11 2.13  11 2.13  11 2.13
   9  0.667  0.333  0.555-  18 2.13  18 2.13  18 2.13  12 2.13  12 2.13  12 2.13
  10  0.667  0.333  0.727-  13 2.13  13 2.13  13 2.13  19 2.13  19 2.13  19 2.13
  11  0.000  0.000  0.354-   2 2.13   2 2.13   2 2.13   8 2.13   8 2.13   8 2.13  17 3.02  17 3.02
                            17 3.02  14 3.02  14 3.02  14 3.02
  12  0.000  0.000  0.526-   4 2.13   4 2.13   4 2.13   9 2.13   9 2.13   9 2.13  15 3.02  15 3.02
                            15 3.02  18 3.02  18 3.02  18 3.02
  13  0.000  0.000  0.698-  10 2.13  10 2.13  10 2.13   6 2.13   6 2.13   6 2.13  16 3.02  16 3.02
                            16 3.02  19 3.03  19 3.03  19 3.03
  14  0.667  0.333  0.296-   1 2.07   1 2.07   1 2.07   2 2.13   2 2.13   2 2.13  11 3.02  11 3.02
                            11 3.02  21 3.35  21 3.35  21 3.35
  15  0.667  0.333  0.469-   3 2.13   3 2.13   3 2.13   4 2.13   4 2.13   4 2.13  17 3.02  17 3.02
                            17 3.02  12 3.02  12 3.02  12 3.02
  16  0.667  0.333  0.641-   6 2.13   6 2.13   6 2.13   5 2.13   5 2.13   5 2.13  13 3.02  13 3.02
                            13 3.02  18 3.02  18 3.02  18 3.02
  17  0.333  0.667  0.411-   8 2.13   8 2.13   8 2.13   3 2.13   3 2.13   3 2.13  15 3.02  15 3.02
                            15 3.02  11 3.02  11 3.02  11 3.02
  18  0.333  0.667  0.583-   9 2.13   9 2.13   9 2.13   5 2.13   5 2.13   5 2.13  16 3.02  16 3.02
                            16 3.02  12 3.02  12 3.02  12 3.02
  19  0.333  0.667  0.756-   7 2.07   7 2.07   7 2.07  10 2.13  10 2.13  10 2.13  13 3.03  13 3.03
                            13 3.03  24 3.35  24 3.35  24 3.35
  20  0.000  0.000  0.026-  25 2.87  25 2.87  25 2.87  23 2.87  23 2.87  23 2.87
  21  0.000  0.000  0.230-   1 1.73  22 2.82  22 2.82  22 2.82  14 3.35  14 3.35  14 3.35
  22  0.667  0.333  0.178-  21 2.82  21 2.82  21 2.82
  23  0.333  0.667  0.079-  20 2.87  20 2.87  20 2.87
  24  0.000  0.000  0.822-   7 1.73  26 2.82  26 2.82  26 2.82  19 3.35  19 3.35  19 3.35
  25  0.667  0.333  0.973-  20 2.87  20 2.87  20 2.87
  26  0.333  0.667  0.874-  24 2.82  24 2.82  24 2.82
 
  LATTYP: Found a hexagonal cell.
 ALAT       =     3.0027496481
 C/A-ratio  =    14.3760484553
  
  Lattice vectors:
  
 A1 = (   2.6004576727,  -1.5013744842,   0.0000000000)
 A2 = (   0.0000000000,   3.0027489684,   0.0000000000)
 A3 = (   0.0000000000,  -0.0000000000,  43.1676744404)


Analysis of symmetry for initial positions (statically):
=====================================================================
 Subroutine PRICEL returns:
 Original cell was already a primitive cell.
 

 Routine SETGRP: Setting up the symmetry group for a 
 hexagonal supercell.


 Subroutine GETGRP returns: Found  6 space group operations
 (whereof  6 operations were pure point group operations)
 out of a pool of 24 trial point group operations.


The static configuration has the point symmetry C_3v.


Analysis of symmetry for dynamics (positions and initial velocities):
=====================================================================
 Subroutine PRICEL returns:
 Original cell was already a primitive cell.
 

 Routine SETGRP: Setting up the symmetry group for a 
 hexagonal supercell.


 Subroutine GETGRP returns: Found  6 space group operations
 (whereof  6 operations were pure point group operations)
 out of a pool of 24 trial point group operations.


The dynamic configuration has the point symmetry C_3v.


Analysis of constrained symmetry for selective dynamics:
=====================================================================
 Subroutine PRICEL returns:
 Original cell was already a primitive cell.
 

 Routine SETGRP: Setting up the symmetry group for a 
 hexagonal supercell.


 Subroutine GETGRP returns: Found  6 space group operations
 (whereof  6 operations were pure point group operations)
 out of a pool of 24 trial point group operations.


The constrained configuration has the point symmetry C_3v.
 
 
 KPOINTS: K-Spacing Value to Generate K-Mesh: 0.02

Automatic generation of k-mesh.
Space group operators:
 irot       det(A)        alpha          n_x          n_y          n_z        tau_x        tau_y        tau_z
    1     1.000000     0.000000     1.000000     0.000000     0.000000     0.000000     0.000000     0.000000
    2     1.000000   120.000000    -0.000000    -0.000000    -1.000000     0.000000     0.000000     0.000000
    3     1.000000   120.000000     0.000000    -0.000000     1.000000     0.000000     0.000000     0.000000
    4    -1.000000   180.000000    -0.866025     0.500000     0.000000     0.000000     0.000000     0.000000
    5    -1.000000   180.000000     0.000000     1.000000     0.000000     0.000000     0.000000     0.000000
    6    -1.000000   180.000000    -0.866025    -0.500000     0.000000     0.000000     0.000000     0.000000
 
 Subroutine IBZKPT returns following result:
 ===========================================
 
 Found     21 irreducible k-points:
 
 Following reciprocal coordinates:
            Coordinates               Weight
  0.000000  0.000000  0.000000      1.000000
  0.076923  0.000000 -0.000000      6.000000
  0.153846  0.000000 -0.000000      6.000000
  0.230769  0.000000  0.000000      6.000000
  0.307692  0.000000 -0.000000      6.000000
  0.384615  0.000000 -0.000000      6.000000
  0.461538  0.000000  0.000000      6.000000
  0.076923  0.076923 -0.000000      6.000000
  0.153846  0.076923 -0.000000     12.000000
  0.230769  0.076923  0.000000     12.000000
  0.307692  0.076923  0.000000     12.000000
  0.384615  0.076923  0.000000     12.000000
  0.461538  0.076923  0.000000      6.000000
  0.153846  0.153846 -0.000000      6.000000
  0.230769  0.153846  0.000000     12.000000
  0.307692  0.153846 -0.000000     12.000000
  0.384615  0.153846 -0.000000     12.000000
  0.230769  0.230769 -0.000000      6.000000
  0.307692  0.230769 -0.000000     12.000000
  0.384615  0.230769  0.000000      6.000000
  0.307692  0.307692  0.000000      6.000000
 
 Following cartesian coordinates:
            Coordinates               Weight
  0.000000  0.000000  0.000000      1.000000
  0.029581  0.000000 -0.000000      6.000000
  0.059161  0.000000 -0.000000      6.000000
  0.088742  0.000000 -0.000000      6.000000
  0.118322  0.000000 -0.000000      6.000000
  0.147903  0.000000 -0.000000      6.000000
  0.177484  0.000000 -0.000000      6.000000
  0.044371  0.025618 -0.000000      6.000000
  0.073951  0.025618 -0.000000     12.000000
  0.103532  0.025618 -0.000000     12.000000
  0.133113  0.025618 -0.000000     12.000000
  0.162693  0.025618 -0.000000     12.000000
  0.192274  0.025618 -0.000000      6.000000
  0.088742  0.051235 -0.000000      6.000000
  0.118322  0.051235 -0.000000     12.000000
  0.147903  0.051235 -0.000000     12.000000
  0.177484  0.051235 -0.000000     12.000000
  0.133113  0.076853 -0.000000      6.000000
  0.162693  0.076853 -0.000000     12.000000
  0.192274  0.076853 -0.000000      6.000000
  0.177484  0.102470 -0.000000      6.000000
 


--------------------------------------------------------------------------------------------------------




 Dimension of arrays:
   k-points           NKPTS =     21   k-points in BZ     NKDIM =     21   number of bands    NBANDS=     64
   number of dos      NEDOS =    301   number of ions     NIONS =     26
   non local maximal  LDIM  =      5   non local SUM 2l+1 LMDIM =     13
   total plane-waves  NPLWV = 186624
   max r-space proj   IRMAX =      1   max aug-charges    IRDMAX= 188331
   dimension x,y,z NGX =    24 NGY =   24 NGZ =  324
   dimension x,y,z NGXF=    48 NGYF=   48 NGZF=  648
   support grid    NGXF=    96 NGYF=   96 NGZF= 1296
   ions per type =              10   9   7
 NGX,Y,Z   is equivalent  to a cutoff of  13.29, 13.29, 12.48 a.u.
 NGXF,Y,Z  is equivalent  to a cutoff of  26.57, 26.57, 24.96 a.u.


 I would recommend the setting:
   dimension x,y,z NGX =    22 NGY =   22 NGZ =  321
 SYSTEM =  unknown system                          
 POSCAR =  Layer                                   

 Startparameter for this run:
   NWRITE =      2    write-flag & timer
   PREC   = accura    normal or accurate (medium, high low for compatibility)
   ISTART =      0    job   : 0-new  1-cont  2-samecut
   ICHARG =      2    charge: 1-file 2-atom 10-const
   ISPIN  =      1    spin polarized calculation?
   LNONCOLLINEAR =      F non collinear calculations
   LSORBIT =      F    spin-orbit coupling
   INIWAV =      1    electr: 0-lowe 1-rand  2-diag
   LASPH  =      F    aspherical Exc in radial PAW
   METAGGA=      F    non-selfconsistent MetaGGA calc.

 Electronic Relaxation 1
   ENCUT  =  520.0 eV  38.22 Ry    6.18 a.u.   5.58  5.58 80.26*2*pi/ulx,y,z
   ENINI  =  520.0     initial cutoff
   ENAUG  =  605.4 eV  augmentation charge cutoff
   NELM   =    100;   NELMIN=  6; NELMDL=  0     # of ELM steps 
   EDIFF  = 0.1E-04   stopping-criterion for ELM
   LREAL  =      F    real-space projection
   NLSPLINE    = F    spline interpolate recip. space projectors
   LCOMPAT=      F    compatible to vasp.4.4
   GGA_COMPAT  = T    GGA compatible to vasp.4.4-vasp.4.6
   LMAXPAW     = -100 max onsite density
   LMAXMIX     =    2 max onsite mixed and CHGCAR
   VOSKOWN=      0    Vosko Wilk Nusair interpolation
   ROPT   =    0.00000   0.00000   0.00000
 Ionic relaxation
   EDIFFG = -.2E-01   stopping-criterion for IOM
   NSW    =    500    number of steps for IOM
   NBLOCK =      1;   KBLOCK =    500    inner block; outer block 
   IBRION =      2    ionic relax: 0-MD 1-quasi-New 2-CG
   NFREE  =      1    steps in history (QN), initial steepest desc. (CG)
   ISIF   =      2    stress and relaxation
   IWAVPR =     11    prediction:  0-non 1-charg 2-wave 3-comb
   ISYM   =      2    0-nonsym 1-usesym 2-fastsym
   LCORR  =      T    Harris-Foulkes like correction to forces

   POTIM  = 0.5000    time-step for ionic-motion
   TEIN   =    0.0    initial temperature
   TEBEG  =    0.0;   TEEND  =   0.0 temperature during run
   SMASS  =  -3.00    Nose mass-parameter (am)
   estimated Nose-frequenzy (Omega)   =  0.10E-29 period in steps =****** mass=  -0.206E-27a.u.
   SCALEE = 1.0000    scale energy and forces
   NPACO  =    256;   APACO  = 16.0  distance and # of slots for P.C.
   PSTRESS=    0.0 pullay stress

  Mass of Ions in am
   POMASS =  16.00 24.30 26.98
  Ionic Valenz
   ZVAL   =   6.00  2.00  3.00
  Atomic Wigner-Seitz radii
   RWIGS  =  -1.00 -1.00 -1.00
  virtual crystal weights 
   VCA    =   1.00  1.00  1.00
   NELECT =      99.0000    total number of electrons
   NUPDOWN=      -1.0000    fix difference up-down

 DOS related values:
   EMIN   =  10.00;   EMAX   =-10.00  energy-range for DOS
   EFERMI =   0.00
   ISMEAR =     0;   SIGMA  =   0.05  broadening in eV -4-tet -1-fermi 0-gaus

 Electronic relaxation 2 (details)
   IALGO  =     38    algorithm
   LDIAG  =      T    sub-space diagonalisation (order eigenvalues)
   LSUBROT=      F    optimize rotation matrix (better conditioning)
   TURBO    =      0    0=normal 1=particle mesh
   IRESTART =      0    0=no restart 2=restart with 2 vectors
   NREBOOT  =      0    no. of reboots
   NMIN     =      0    reboot dimension
   EREF     =   0.00    reference energy to select bands
   IMIX   =      4    mixing-type and parameters
     AMIX     =   0.40;   BMIX     =  1.00
     AMIX_MAG =   1.60;   BMIX_MAG =  1.00
     AMIN     =   0.01
     WC   =   100.;   INIMIX=   1;  MIXPRE=   1;  MAXMIX= -45

 Intra band minimization:
   WEIMIN = 0.0010     energy-eigenvalue tresh-hold
   EBREAK =  0.39E-07  absolut break condition
   DEPER  =   0.30     relativ break condition  

   TIME   =   0.40     timestep for ELM

  volume/ion in A,a.u.               =      12.96        87.49
  Fermi-wavevector in a.u.,A,eV,Ry     =   1.088205  2.056409 16.111886  1.184190
  Thomas-Fermi vector in A             =   2.224381
 
 Write flags
   LWAVE  =      F    write WAVECAR
   LCHARG =      T    write CHGCAR
   LVTOT  =      F    write LOCPOT, total local potential
   LVHAR  =      F    write LOCPOT, Hartree potential only
   LELF   =      F    write electronic localiz. function (ELF)
   LORBIT =      0    0 simple, 1 ext, 2 COOP (PROOUT)


 Dipole corrections
   LMONO  =      F    monopole corrections only (constant potential shift)
   LDIPOL =      F    correct potential (dipole corrections)
   IDIPOL =      0    1-x, 2-y, 3-z, 4-all directions 
   EPSILON=  1.0000000 bulk dielectric constant

 Exchange correlation treatment:
   GGA     =    --    GGA type
   LEXCH   =     8    internal setting for exchange type
   VOSKOWN=      0    Vosko Wilk Nusair interpolation
   LHFCALC =     F    Hartree Fock is set to
   LHFONE  =     F    Hartree Fock one center treatment
   AEXX    =    0.0000 exact exchange contribution

 Linear response parameters
   LEPSILON=     F    determine dielectric tensor
   LRPA    =     F    only Hartree local field effects (RPA)
   LNABLA  =     F    use nabla operator in PAW spheres
   LVEL    =     F    velocity operator in full k-point grid
   LINTERFAST=   F  fast interpolation
   KINTER  =     0    interpolate to denser k-point grid
   CSHIFT  =0.1000    complex shift for real part using Kramers Kronig
   OMEGAMAX=  -1.0    maximum frequency
   DEG_THRESHOLD= 0.2000000E-02 threshold for treating states as degnerate
   RTIME   =    0.100 relaxation time in fs

 Orbital magnetization related:
   ORBITALMAG=     F  switch on orbital magnetization
   LCHIMAG   =     F  perturbation theory with respect to B field
   DQ        =  0.001000  dq finite difference perturbation B field



--------------------------------------------------------------------------------------------------------


 conjugate gradient relaxation of ions
   using selective dynamics as specified on POSCAR
 charge density and potential will be updated during run
 non-spin polarized calculation
 Variant of blocked Davidson
 Davidson routine will perform the subspace rotation
 perform sub-space diagonalisation
    after iterative eigenvector-optimisation
 modified Broyden-mixing scheme, WC =      100.0
 initial mixing is a Kerker type mixing with AMIX =  0.4000 and BMIX =      1.0000
 Hartree-type preconditioning will be used
 using additional bands           14
 reciprocal scheme for non local part
 use partial core corrections
 calculate Harris-corrections to forces 
   (improved forces if not selfconsistent)
 use gradient corrections 
 use of overlap-Matrix (Vanderbilt PP)
 Gauss-broadening in eV      SIGMA  =   0.05


--------------------------------------------------------------------------------------------------------


  energy-cutoff  :      520.00
  volume of cell :      337.08
      direct lattice vectors                 reciprocal lattice vectors
     2.600457673 -1.501374484  0.000000000     0.384547693  0.000000000 -0.000000000
     0.000000000  3.002748968  0.000000000     0.192273847  0.333028172 -0.000000000
     0.000000000 -0.000000000 43.167674440     0.000000000  0.000000000  0.023165482

  length of vectors
     3.002749648  3.002748968 43.167674440     0.384547693  0.384547781  0.023165482


 
 k-points in units of 2pi/SCALE and weight: K-Spacing Value to Generate K-Mesh: 0.02
   0.00000000  0.00000000  0.00000000       0.006
   0.02958059  0.00000000 -0.00000000       0.036
   0.05916118  0.00000000 -0.00000000       0.036
   0.08874178  0.00000000 -0.00000000       0.036
   0.11832237  0.00000000 -0.00000000       0.036
   0.14790296  0.00000000 -0.00000000       0.036
   0.17748355  0.00000000 -0.00000000       0.036
   0.04437089  0.02561755 -0.00000000       0.036
   0.07395148  0.02561755 -0.00000000       0.071
   0.10353207  0.02561755 -0.00000000       0.071
   0.13311266  0.02561755 -0.00000000       0.071
   0.16269325  0.02561755 -0.00000000       0.071
   0.19227385  0.02561755 -0.00000000       0.036
   0.08874178  0.05123510 -0.00000000       0.036
   0.11832237  0.05123510 -0.00000000       0.071
   0.14790296  0.05123510 -0.00000000       0.071
   0.17748355  0.05123510 -0.00000000       0.071
   0.13311266  0.07685266 -0.00000000       0.036
   0.16269325  0.07685266 -0.00000000       0.071
   0.19227385  0.07685266 -0.00000000       0.036
   0.17748355  0.10247021 -0.00000000       0.036
 
 k-points in reciprocal lattice and weights: K-Spacing Value to Generate K-Mesh: 0.02
   0.00000000  0.00000000  0.00000000       0.006
   0.07692308  0.00000000 -0.00000000       0.036
   0.15384615  0.00000000 -0.00000000       0.036
   0.23076923  0.00000000  0.00000000       0.036
   0.30769231  0.00000000 -0.00000000       0.036
   0.38461538  0.00000000 -0.00000000       0.036
   0.46153846  0.00000000  0.00000000       0.036
   0.07692308  0.07692308 -0.00000000       0.036
   0.15384615  0.07692308 -0.00000000       0.071
   0.23076923  0.07692308  0.00000000       0.071
   0.30769231  0.07692308  0.00000000       0.071
   0.38461538  0.07692308  0.00000000       0.071
   0.46153846  0.07692308  0.00000000       0.036
   0.15384615  0.15384615 -0.00000000       0.036
   0.23076923  0.15384615  0.00000000       0.071
   0.30769231  0.15384615 -0.00000000       0.071
   0.38461538  0.15384615 -0.00000000       0.071
   0.23076923  0.23076923 -0.00000000       0.036
   0.30769231  0.23076923 -0.00000000       0.071
   0.38461538  0.23076923  0.00000000       0.036
   0.30769231  0.30769231  0.00000000       0.036
 
 position of ions in fractional coordinates (direct lattice) 
   0.00000000  0.00000000  0.27004167
   0.33333300  0.66666700  0.32512525
   0.00000000  0.00000000  0.43991393
   0.33333300  0.66666700  0.49732917
   0.00000000  0.00000000  0.61213279
   0.33333300  0.66666700  0.66951790
   0.00000000  0.00000000  0.78196977
   0.66666700  0.33333300  0.38250976
   0.66666700  0.33333300  0.55473631
   0.66666700  0.33333300  0.72686964
   0.00000000  0.00000000  0.35379664
   0.00000000  0.00000000  0.52600377
   0.00000000  0.00000000  0.69823903
   0.66666700  0.33333300  0.29637763
   0.66666700  0.33333300  0.46858603
   0.66666700  0.33333300  0.64083791
   0.33333300  0.66666700  0.41119256
   0.33333300  0.66666700  0.58342764
   0.33333300  0.66666700  0.75567979
   0.00000000  0.00000000  0.02623299
   0.00000000  0.00000000  0.22998264
   0.66666700  0.33333300  0.17844750
   0.33333300  0.66666700  0.07930490
   0.00000000  0.00000000  0.82201183
   0.66666700  0.33333300  0.97317065
   0.33333300  0.66666700  0.87352932
 
 position of ions in cartesian coordinates  (Angst):
   0.00000000 -0.00000000 11.65707078
   0.86681836  1.50137599 14.03490081
   0.00000000 -0.00000000 18.99006111
   0.86681836  1.50137599 21.46854382
   0.00000000 -0.00000000 26.42434903
   0.86681836  1.50137599 28.90153068
   0.00000000 -0.00000000 33.75581627
   1.73363932 -0.00000150 16.51205689
   1.73363932 -0.00000150 23.94667623
   1.73363932 -0.00000150 31.37727189
   0.00000000 -0.00000000 15.27257801
   0.00000000 -0.00000000 22.70635949
   0.00000000 -0.00000000 30.14135521
   1.73363932 -0.00000150 12.79393288
   1.73363932 -0.00000150 20.22776901
   1.73363932 -0.00000150 27.66348248
   0.86681836  1.50137599 17.75022653
   0.86681836  1.50137599 25.18521451
   0.86681836  1.50137599 32.62093937
   0.00000000 -0.00000000  1.13241696
   0.00000000 -0.00000000  9.92781577
   1.73363932 -0.00000150  7.70316354
   0.86681836  1.50137599  3.42340814
   0.00000000 -0.00000000 35.48433898
   1.73363932 -0.00000150 42.00951381
   0.86681836  1.50137599 37.70822934
 


--------------------------------------------------------------------------------------------------------


 k-point  1 :   0.0000 0.0000 0.0000  plane waves:    9185
 k-point  2 :   0.0769 0.0000-0.0000  plane waves:    9185
 k-point  3 :   0.1538 0.0000-0.0000  plane waves:    9157
 k-point  4 :   0.2308 0.0000 0.0000  plane waves:    9138
 k-point  5 :   0.3077 0.0000-0.0000  plane waves:    9074
 k-point  6 :   0.3846 0.0000-0.0000  plane waves:    9024
 k-point  7 :   0.4615 0.0000 0.0000  plane waves:    9034
 k-point  8 :   0.0769 0.0769-0.0000  plane waves:    9169
 k-point  9 :   0.1538 0.0769-0.0000  plane waves:    9154
 k-point 10 :   0.2308 0.0769 0.0000  plane waves:    9087
 k-point 11 :   0.3077 0.0769 0.0000  plane waves:    9068
 k-point 12 :   0.3846 0.0769 0.0000  plane waves:    9033
 k-point 13 :   0.4615 0.0769 0.0000  plane waves:    9008
 k-point 14 :   0.1538 0.1538-0.0000  plane waves:    9097
 k-point 15 :   0.2308 0.1538 0.0000  plane waves:    9072
 k-point 16 :   0.3077 0.1538-0.0000  plane waves:    9058
 k-point 17 :   0.3846 0.1538-0.0000  plane waves:    9012
 k-point 18 :   0.2308 0.2308-0.0000  plane waves:    9076
 k-point 19 :   0.3077 0.2308-0.0000  plane waves:    9027
 k-point 20 :   0.3846 0.2308 0.0000  plane waves:    9048
 k-point 21 :   0.3077 0.3077 0.0000  plane waves:    9054

 maximum and minimum number of plane-waves per node :      2323     2225

 maximum number of plane-waves:      9185
 maximum index in each direction: 
   IXMAX=    5   IYMAX=    5   IZMAX=   80
   IXMIN=   -6   IYMIN=   -5   IZMIN=  -80

 NGX is ok and might be reduce to  24
 NGY is ok and might be reduce to  22
 NGZ is ok and might be reduce to 322

 parallel 3D FFT for wavefunctions:
    minimum data exchange during FFTs selected (reduces bandwidth)
 parallel 3D FFT for charge:
    minimum data exchange during FFTs selected (reduces bandwidth)


 total amount of memory used by VASP on root node   149357. kBytes
========================================================================

   base      :      30000. kBytes
   nonl-proj :      15859. kBytes
   fftplans  :      55867. kBytes
   grid      :      22394. kBytes
   one-center:         56. kBytes
   wavefun   :      25181. kBytes
 
     INWAV:  cpu time    0.00: real time    0.00
 Broyden mixing: mesh for mixing (old mesh)
   NGX = 11   NGY = 11   NGZ =161
  (NGX  = 48   NGY  = 48   NGZ  =648)
  gives a total of  19481 points

 initial charge density was supplied:
 charge density of overlapping atoms calculated
 number of electron      99.0000000 magnetization 
 keeping initial charge density in first step


--------------------------------------------------------------------------------------------------------


 Maximum index for augmentation-charges        22701 (set IRDMAX)


--------------------------------------------------------------------------------------------------------


 First call to EWALD:  gamma=   0.255
 Maximum number of real-space cells 7x 7x 1
 Maximum number of reciprocal cells 1x 1x14

 FEWALD executed in parallel
    FEWALD:  cpu time    0.00: real time    0.00


----------------------------------------- Iteration    1(   1)  ---------------------------------------


    POTLOK:  cpu time    0.10: real time    0.10
    SETDIJ:  cpu time    0.10: real time    0.10
     EDDAV:  cpu time    4.14: real time    4.15
       DOS:  cpu time    0.00: real time    0.00
    --------------------------------------------
      LOOP:  cpu time    4.35: real time    4.35

 eigenvalue-minimisations  :  2696
 total energy-change (2. order) : 0.5288015E+03  (-0.4423897E+04)
 number of electron      99.0000000 magnetization 
 augmentation part       99.0000000 magnetization 

 Free energy of the ion-electron system (eV)
  ---------------------------------------------------
  alpha Z        PSCENC =       125.19930004
  Ewald energy   TEWEN  =     19680.08326625
  -Hartree energ DENC   =    -24756.87609849
  -exchange      EXHF   =         0.00000000
  -V(xc)+E(xc)   XCENC  =      -343.06615138
  PAW double counting   =      4516.65612620    -3844.19644948
  entropy T*S    EENTRO =        -0.00897853
  eigenvalues    EBANDS =       245.32959866
  atomic energy  EATOM  =      4905.68083858
  ---------------------------------------------------
  free energy    TOTEN  =       528.80145186 eV

  energy without entropy =      528.81043039  energy(sigma->0) =      528.80594112


--------------------------------------------------------------------------------------------------------




----------------------------------------- Iteration    1(   2)  ---------------------------------------


     EDDAV:  cpu time    4.86: real time    4.86
       DOS:  cpu time    0.00: real time    0.00
    --------------------------------------------
      LOOP:  cpu time    4.86: real time    4.86

 eigenvalue-minimisations  :  3424
 total energy-change (2. order) :-0.6237918E+03  (-0.5918616E+03)
 number of electron      99.0000000 magnetization 
 augmentation part       99.0000000 magnetization 

 Free energy of the ion-electron system (eV)
  ---------------------------------------------------
  alpha Z        PSCENC =       125.19930004
  Ewald energy   TEWEN  =     19680.08326625
  -Hartree energ DENC   =    -24756.87609849
  -exchange      EXHF   =         0.00000000
  -V(xc)+E(xc)   XCENC  =      -343.06615138
  PAW double counting   =      4516.65612620    -3844.19644948
  entropy T*S    EENTRO =        -0.00368618
  eigenvalues    EBANDS =      -378.46748818
  atomic energy  EATOM  =      4905.68083858
  ---------------------------------------------------
  free energy    TOTEN  =       -94.99034264 eV

  energy without entropy =      -94.98665645  energy(sigma->0) =      -94.98849955


--------------------------------------------------------------------------------------------------------




----------------------------------------- Iteration    1(   3)  ---------------------------------------


     EDDAV:  cpu time    4.51: real time    4.51
       DOS:  cpu time    0.00: real time    0.00
    --------------------------------------------
      LOOP:  cpu time    4.51: real time    4.51

 eigenvalue-minimisations  :  3128
 total energy-change (2. order) :-0.6199330E+02  (-0.6165578E+02)
 number of electron      99.0000000 magnetization 
 augmentation part       99.0000000 magnetization 

 Free energy of the ion-electron system (eV)
  ---------------------------------------------------
  alpha Z        PSCENC =       125.19930004
  Ewald energy   TEWEN  =     19680.08326625
  -Hartree energ DENC   =    -24756.87609849
  -exchange      EXHF   =         0.00000000
  -V(xc)+E(xc)   XCENC  =      -343.06615138
  PAW double counting   =      4516.65612620    -3844.19644948
  entropy T*S    EENTRO =        -0.00338285
  eigenvalues    EBANDS =      -440.46109540
  atomic energy  EATOM  =      4905.68083858
  ---------------------------------------------------
  free energy    TOTEN  =      -156.98364652 eV

  energy without entropy =     -156.98026367  energy(sigma->0) =     -156.98195510


--------------------------------------------------------------------------------------------------------




----------------------------------------- Iteration    1(   4)  ---------------------------------------


     EDDAV:  cpu time    4.52: real time    4.52
       DOS:  cpu time    0.00: real time    0.00
    --------------------------------------------
      LOOP:  cpu time    4.52: real time    4.52

 eigenvalue-minimisations  :  3152
 total energy-change (2. order) :-0.9948841E+00  (-0.9929639E+00)
 number of electron      99.0000000 magnetization 
 augmentation part       99.0000000 magnetization 

 Free energy of the ion-electron system (eV)
  ---------------------------------------------------
  alpha Z        PSCENC =       125.19930004
  Ewald energy   TEWEN  =     19680.08326625
  -Hartree energ DENC   =    -24756.87609849
  -exchange      EXHF   =         0.00000000
  -V(xc)+E(xc)   XCENC  =      -343.06615138
  PAW double counting   =      4516.65612620    -3844.19644948
  entropy T*S    EENTRO =        -0.00334446
  eigenvalues    EBANDS =      -441.45601786
  atomic energy  EATOM  =      4905.68083858
  ---------------------------------------------------
  free energy    TOTEN  =      -157.97853060 eV

  energy without entropy =     -157.97518614  energy(sigma->0) =     -157.97685837


--------------------------------------------------------------------------------------------------------




----------------------------------------- Iteration    1(   5)  ---------------------------------------


     EDDAV:  cpu time    4.60: real time    4.60
       DOS:  cpu time    0.00: real time    0.00
    CHARGE:  cpu time    0.38: real time    0.38
    MIXING:  cpu time    0.00: real time    0.00
    --------------------------------------------
      LOOP:  cpu time    4.98: real time    4.99

 eigenvalue-minimisations  :  3208
 total energy-change (2. order) :-0.1973488E-01  (-0.1972804E-01)
 number of electron      99.0000001 magnetization 
 augmentation part        7.8043366 magnetization 

 Broyden mixing:
  rms(total) = 0.23769E+01    rms(broyden)= 0.23764E+01
  rms(prec ) = 0.24415E+01
  weight for this iteration     100.00

 Free energy of the ion-electron system (eV)
  ---------------------------------------------------
  alpha Z        PSCENC =       125.19930004
  Ewald energy   TEWEN  =     19680.08326625
  -Hartree energ DENC   =    -24756.87609849
  -exchange      EXHF   =         0.00000000
  -V(xc)+E(xc)   XCENC  =      -343.06615138
  PAW double counting   =      4516.65612620    -3844.19644948
  entropy T*S    EENTRO =        -0.00334170
  eigenvalues    EBANDS =      -441.47575550
  atomic energy  EATOM  =      4905.68083858
  ---------------------------------------------------
  free energy    TOTEN  =      -157.99826548 eV

  energy without entropy =     -157.99492378  energy(sigma->0) =     -157.99659463


--------------------------------------------------------------------------------------------------------




----------------------------------------- Iteration    1(   6)  ---------------------------------------


    POTLOK:  cpu time    0.10: real time    0.10
    SETDIJ:  cpu time    0.09: real time    0.09
     EDDAV:  cpu time    4.49: real time    4.49
       DOS:  cpu time    0.00: real time    0.00
    CHARGE:  cpu time    0.37: real time    0.37
    MIXING:  cpu time    0.00: real time    0.00
    --------------------------------------------
      LOOP:  cpu time    5.06: real time    5.06

 eigenvalue-minimisations  :  3112
 total energy-change (2. order) : 0.1745291E+02  (-0.9185486E+01)
 number of electron      99.0000001 magnetization 
 augmentation part        6.3156795 magnetization 

 Broyden mixing:
  rms(total) = 0.78421E+00    rms(broyden)= 0.78317E+00
  rms(prec ) = 0.79384E+00
  weight for this iteration     100.00

 eigenvalues of (default mixing * dielectric matrix)
  average eigenvalue GAMMA=   0.8540
  0.8540

 Free energy of the ion-electron system (eV)
  ---------------------------------------------------
  alpha Z        PSCENC =       125.19930004
  Ewald energy   TEWEN  =     19680.08326625
  -Hartree energ DENC   =    -24964.51667644
  -exchange      EXHF   =         0.00000000
  -V(xc)+E(xc)   XCENC  =      -329.44270619
  PAW double counting   =      5409.14967176    -4740.28062010
  entropy T*S    EENTRO =        -0.00351361
  eigenvalues    EBANDS =      -226.41491614
  atomic energy  EATOM  =      4905.68083858
  ---------------------------------------------------
  free energy    TOTEN  =      -140.54535585 eV

  energy without entropy =     -140.54184224  energy(sigma->0) =     -140.54359904


--------------------------------------------------------------------------------------------------------




----------------------------------------- Iteration    1(   7)  ---------------------------------------


    POTLOK:  cpu time    0.10: real time    0.10
    SETDIJ:  cpu time    0.09: real time    0.09
     EDDAV:  cpu time    4.39: real time    4.39
       DOS:  cpu time    0.00: real time    0.00
    CHARGE:  cpu time    0.37: real time    0.37
    MIXING:  cpu time    0.00: real time    0.00
    --------------------------------------------
      LOOP:  cpu time    4.96: real time    4.96

 eigenvalue-minimisations  :  3000
 total energy-change (2. order) : 0.1748965E-01  (-0.3252615E+00)
 number of electron      99.0000001 magnetization 
 augmentation part        6.3221464 magnetization 

 Broyden mixing:
  rms(total) = 0.49471E+00    rms(broyden)= 0.49468E+00
  rms(prec ) = 0.50364E+00
  weight for this iteration     100.00

 eigenvalues of (default mixing * dielectric matrix)
  average eigenvalue GAMMA=   1.4051
  1.0435  1.7667

 Free energy of the ion-electron system (eV)
  ---------------------------------------------------
  alpha Z        PSCENC =       125.19930004
  Ewald energy   TEWEN  =     19680.08326625
  -Hartree energ DENC   =    -24969.09889260
  -exchange      EXHF   =         0.00000000
  -V(xc)+E(xc)   XCENC  =      -328.94976363
  PAW double counting   =      5762.30225892    -5093.01746326
  entropy T*S    EENTRO =        -0.00413072
  eigenvalues    EBANDS =      -222.72327977
  atomic energy  EATOM  =      4905.68083858
  ---------------------------------------------------
  free energy    TOTEN  =      -140.52786619 eV

  energy without entropy =     -140.52373547  energy(sigma->0) =     -140.52580083


--------------------------------------------------------------------------------------------------------




----------------------------------------- Iteration    1(   8)  ---------------------------------------


    POTLOK:  cpu time    0.10: real time    0.10
    SETDIJ:  cpu time    0.09: real time    0.09
     EDDAV:  cpu time    4.51: real time    4.52
       DOS:  cpu time    0.00: real time    0.00
    CHARGE:  cpu time    0.37: real time    0.37
    MIXING:  cpu time    0.00: real time    0.00
    --------------------------------------------
      LOOP:  cpu time    5.08: real time    5.08

 eigenvalue-minimisations  :  3040
 total energy-change (2. order) : 0.1590111E+00  (-0.7579040E-01)
 number of electron      99.0000001 magnetization 
 augmentation part        6.3843957 magnetization 

 Broyden mixing:
  rms(total) = 0.14106E+00    rms(broyden)= 0.14101E+00
  rms(prec ) = 0.15047E+00
  weight for this iteration     100.00

 eigenvalues of (default mixing * dielectric matrix)
  average eigenvalue GAMMA=   1.3607
  2.3745  0.9294  0.7781

 Free energy of the ion-electron system (eV)
  ---------------------------------------------------
  alpha Z        PSCENC =       125.19930004
  Ewald energy   TEWEN  =     19680.08326625
  -Hartree energ DENC   =    -24979.32318938
  -exchange      EXHF   =         0.00000000
  -V(xc)+E(xc)   XCENC  =      -327.96204297
  PAW double counting   =      6211.56804677    -5541.97808347
  entropy T*S    EENTRO =        -0.00620411
  eigenvalues    EBANDS =      -213.63078680
  atomic energy  EATOM  =      4905.68083858
  ---------------------------------------------------
  free energy    TOTEN  =      -140.36885508 eV

  energy without entropy =     -140.36265097  energy(sigma->0) =     -140.36575303


--------------------------------------------------------------------------------------------------------




----------------------------------------- Iteration    1(   9)  ---------------------------------------


    POTLOK:  cpu time    0.10: real time    0.10
    SETDIJ:  cpu time    0.09: real time    0.09
     EDDAV:  cpu time    4.65: real time    4.65
       DOS:  cpu time    0.00: real time    0.00
    CHARGE:  cpu time    0.37: real time    0.37
    MIXING:  cpu time    0.00: real time    0.00
    --------------------------------------------
      LOOP:  cpu time    5.21: real time    5.21

 eigenvalue-minimisations  :  3112
 total energy-change (2. order) : 0.4294581E-01  (-0.1504432E-01)
 number of electron      99.0000001 magnetization 
 augmentation part        6.3566384 magnetization 

 Broyden mixing:
  rms(total) = 0.71841E-01    rms(broyden)= 0.71836E-01
  rms(prec ) = 0.87660E-01
  weight for this iteration     100.00

 eigenvalues of (default mixing * dielectric matrix)
  average eigenvalue GAMMA=   1.3261
  2.4074  0.9364  0.9364  1.0239

 Free energy of the ion-electron system (eV)
  ---------------------------------------------------
  alpha Z        PSCENC =       125.19930004
  Ewald energy   TEWEN  =     19680.08326625
  -Hartree energ DENC   =    -24989.11824422
  -exchange      EXHF   =         0.00000000
  -V(xc)+E(xc)   XCENC  =      -327.26189714
  PAW double counting   =      6342.21940844    -5672.65426095
  entropy T*S    EENTRO =        -0.00409418
  eigenvalues    EBANDS =      -204.47022610
  atomic energy  EATOM  =      4905.68083858
  ---------------------------------------------------
  free energy    TOTEN  =      -140.32590927 eV

  energy without entropy =     -140.32181509  energy(sigma->0) =     -140.32386218


--------------------------------------------------------------------------------------------------------




----------------------------------------- Iteration    1(  10)  ---------------------------------------


    POTLOK:  cpu time    0.10: real time    0.10
    SETDIJ:  cpu time    0.09: real time    0.09
     EDDAV:  cpu time    4.53: real time    4.53
       DOS:  cpu time    0.00: real time    0.00
    CHARGE:  cpu time    0.39: real time    0.39
    MIXING:  cpu time    0.00: real time    0.00
    --------------------------------------------
      LOOP:  cpu time    5.12: real time    5.12

 eigenvalue-minimisations  :  3064
 total energy-change (2. order) : 0.7865288E-02  (-0.6142894E-02)
 number of electron      99.0000001 magnetization 
 augmentation part        6.3414613 magnetization 

 Broyden mixing:
  rms(total) = 0.35509E-01    rms(broyden)= 0.35493E-01
  rms(prec ) = 0.48063E-01
  weight for this iteration     100.00

 eigenvalues of (default mixing * dielectric matrix)
  average eigenvalue GAMMA=   1.3317
  2.4984  1.6946  0.9580  0.7538  0.7538

 Free energy of the ion-electron system (eV)
  ---------------------------------------------------
  alpha Z        PSCENC =       125.19930004
  Ewald energy   TEWEN  =     19680.08326625
  -Hartree energ DENC   =    -24991.62359862
  -exchange      EXHF   =         0.00000000
  -V(xc)+E(xc)   XCENC  =      -327.16220384
  PAW double counting   =      6339.12753146    -5669.57293931
  entropy T*S    EENTRO =        -0.00627125
  eigenvalues    EBANDS =      -202.04396729
  atomic energy  EATOM  =      4905.68083858
  ---------------------------------------------------
  free energy    TOTEN  =      -140.31804398 eV

  energy without entropy =     -140.31177273  energy(sigma->0) =     -140.31490836


--------------------------------------------------------------------------------------------------------




----------------------------------------- Iteration    1(  11)  ---------------------------------------


    POTLOK:  cpu time    0.10: real time    0.10
    SETDIJ:  cpu time    0.10: real time    0.10
     EDDAV:  cpu time    5.29: real time    5.29
       DOS:  cpu time    0.00: real time    0.00
    CHARGE:  cpu time    0.39: real time    0.39
    MIXING:  cpu time    0.00: real time    0.00
    --------------------------------------------
      LOOP:  cpu time    5.88: real time    5.88

 eigenvalue-minimisations  :  3064
 total energy-change (2. order) : 0.8296607E-02  (-0.2984756E-02)
 number of electron      99.0000001 magnetization 
 augmentation part        6.3370472 magnetization 

 Broyden mixing:
  rms(total) = 0.28138E-01    rms(broyden)= 0.28129E-01
  rms(prec ) = 0.52229E-01
  weight for this iteration     100.00

 eigenvalues of (default mixing * dielectric matrix)
  average eigenvalue GAMMA=   1.2211
  2.5488  1.7677  0.9634  0.7603  0.7603  0.5265

 Free energy of the ion-electron system (eV)
  ---------------------------------------------------
  alpha Z        PSCENC =       125.19930004
  Ewald energy   TEWEN  =     19680.08326625
  -Hartree energ DENC   =    -24995.49116710
  -exchange      EXHF   =         0.00000000
  -V(xc)+E(xc)   XCENC  =      -327.03710812
  PAW double counting   =      6312.77005390    -5643.22788147
  entropy T*S    EENTRO =        -0.00390845
  eigenvalues    EBANDS =      -198.28314101
  atomic energy  EATOM  =      4905.68083858
  ---------------------------------------------------
  free energy    TOTEN  =      -140.30974738 eV

  energy without entropy =     -140.30583893  energy(sigma->0) =     -140.30779315


--------------------------------------------------------------------------------------------------------




----------------------------------------- Iteration    1(  12)  ---------------------------------------


    POTLOK:  cpu time    0.10: real time    0.10
    SETDIJ:  cpu time    0.09: real time    0.09
     EDDAV:  cpu time    5.01: real time    5.01
       DOS:  cpu time    0.00: real time    0.00
    CHARGE:  cpu time    0.37: real time    0.37
    MIXING:  cpu time    0.00: real time    0.00
    --------------------------------------------
      LOOP:  cpu time    5.58: real time    5.58

 eigenvalue-minimisations  :  3544
 total energy-change (2. order) : 0.6764964E-02  (-0.5579720E-03)
 number of electron      99.0000001 magnetization 
 augmentation part        6.3343450 magnetization 

 Broyden mixing:
  rms(total) = 0.19464E-01    rms(broyden)= 0.19464E-01
  rms(prec ) = 0.41219E-01
  weight for this iteration     100.00

 eigenvalues of (default mixing * dielectric matrix)
  average eigenvalue GAMMA=   1.3581
  2.7449  2.5099  0.9528  0.9528  0.9511  0.9511  0.4440

 Free energy of the ion-electron system (eV)
  ---------------------------------------------------
  alpha Z        PSCENC =       125.19930004
  Ewald energy   TEWEN  =     19680.08326625
  -Hartree energ DENC   =    -24997.01274924
  -exchange      EXHF   =         0.00000000
  -V(xc)+E(xc)   XCENC  =      -327.01454228
  PAW double counting   =      6305.01309078    -5635.47266566
  entropy T*S    EENTRO =        -0.00494909
  eigenvalues    EBANDS =      -196.77457180
  atomic energy  EATOM  =      4905.68083858
  ---------------------------------------------------
  free energy    TOTEN  =      -140.30298241 eV

  energy without entropy =     -140.29803332  energy(sigma->0) =     -140.30050787


--------------------------------------------------------------------------------------------------------




----------------------------------------- Iteration    1(  13)  ---------------------------------------


    POTLOK:  cpu time    0.10: real time    0.10
    SETDIJ:  cpu time    0.09: real time    0.09
     EDDAV:  cpu time    6.03: real time    6.03
       DOS:  cpu time    0.00: real time    0.00
    CHARGE:  cpu time    0.37: real time    0.37
    MIXING:  cpu time    0.00: real time    0.00
    --------------------------------------------
      LOOP:  cpu time    6.59: real time    6.60

 eigenvalue-minimisations  :  4320
 total energy-change (2. order) : 0.1289162E-01  (-0.1429723E-02)
 number of electron      99.0000001 magnetization 
 augmentation part        6.3379556 magnetization 

 Broyden mixing:
  rms(total) = 0.12167E-01    rms(broyden)= 0.12163E-01
  rms(prec ) = 0.29592E-01
  weight for this iteration     100.00

 eigenvalues of (default mixing * dielectric matrix)
  average eigenvalue GAMMA=   1.2950
  2.8965  2.5002  1.0258  1.0258  0.8507  0.8507  0.7536  0.4569

 Free energy of the ion-electron system (eV)
  ---------------------------------------------------
  alpha Z        PSCENC =       125.19930004
  Ewald energy   TEWEN  =     19680.08326625
  -Hartree energ DENC   =    -25000.50620197
  -exchange      EXHF   =         0.00000000
  -V(xc)+E(xc)   XCENC  =      -327.04832960
  PAW double counting   =      6276.98546367    -5607.43317654
  entropy T*S    EENTRO =        -0.00578460
  eigenvalues    EBANDS =      -193.24546663
  atomic energy  EATOM  =      4905.68083858
  ---------------------------------------------------
  free energy    TOTEN  =      -140.29009079 eV

  energy without entropy =     -140.28430619  energy(sigma->0) =     -140.28719849


--------------------------------------------------------------------------------------------------------




----------------------------------------- Iteration    1(  14)  ---------------------------------------


    POTLOK:  cpu time    0.10: real time    0.10
    SETDIJ:  cpu time    0.09: real time    0.09
     EDDAV:  cpu time    4.64: real time    4.65
       DOS:  cpu time    0.00: real time    0.00
    CHARGE:  cpu time    0.38: real time    0.38
    MIXING:  cpu time    0.00: real time    0.00
    --------------------------------------------
      LOOP:  cpu time    5.22: real time    5.22

 eigenvalue-minimisations  :  3168
 total energy-change (2. order) : 0.4493564E-02  (-0.9561181E-03)
 number of electron      99.0000001 magnetization 
 augmentation part        6.3395971 magnetization 

 Broyden mixing:
  rms(total) = 0.17234E-01    rms(broyden)= 0.17231E-01
  rms(prec ) = 0.30040E-01
  weight for this iteration     100.00

 eigenvalues of (default mixing * dielectric matrix)
  average eigenvalue GAMMA=   1.3245
  3.0909  2.5391  1.1032  1.1032  1.0556  0.9151  0.9151  0.7421  0.4564

 Free energy of the ion-electron system (eV)
  ---------------------------------------------------
  alpha Z        PSCENC =       125.19930004
  Ewald energy   TEWEN  =     19680.08326625
  -Hartree energ DENC   =    -25002.59121906
  -exchange      EXHF   =         0.00000000
  -V(xc)+E(xc)   XCENC  =      -327.05544960
  PAW double counting   =      6275.25203640    -5605.69723816
  entropy T*S    EENTRO =        -0.00584695
  eigenvalues    EBANDS =      -191.15128473
  atomic energy  EATOM  =      4905.68083858
  ---------------------------------------------------
  free energy    TOTEN  =      -140.28559722 eV

  energy without entropy =     -140.27975027  energy(sigma->0) =     -140.28267375


--------------------------------------------------------------------------------------------------------




----------------------------------------- Iteration    1(  15)  ---------------------------------------


    POTLOK:  cpu time    0.10: real time    0.10
    SETDIJ:  cpu time    0.09: real time    0.09
     EDDAV:  cpu time    5.20: real time    5.20
       DOS:  cpu time    0.00: real time    0.00
    CHARGE:  cpu time    0.37: real time    0.37
    MIXING:  cpu time    0.00: real time    0.00
    --------------------------------------------
      LOOP:  cpu time    5.76: real time    5.77

 eigenvalue-minimisations  :  3736
 total energy-change (2. order) : 0.1202496E-01  (-0.1780992E-02)
 number of electron      99.0000001 magnetization 
 augmentation part        6.3319952 magnetization 

 Broyden mixing:
  rms(total) = 0.23692E-01    rms(broyden)= 0.23687E-01
  rms(prec ) = 0.28771E-01
  weight for this iteration     100.00

 eigenvalues of (default mixing * dielectric matrix)
  average eigenvalue GAMMA=   1.4590
  3.5949  2.8405  2.2083  1.0382  1.0382  1.0069  0.8495  0.8495  0.4558  0.7079

 Free energy of the ion-electron system (eV)
  ---------------------------------------------------
  alpha Z        PSCENC =       125.19930004
  Ewald energy   TEWEN  =     19680.08326625
  -Hartree energ DENC   =    -25009.99999259
  -exchange      EXHF   =         0.00000000
  -V(xc)+E(xc)   XCENC  =      -327.02861320
  PAW double counting   =      6276.35137475    -5606.81058593
  entropy T*S    EENTRO =        -0.00618320
  eigenvalues    EBANDS =      -183.74297696
  atomic energy  EATOM  =      4905.68083858
  ---------------------------------------------------
  free energy    TOTEN  =      -140.27357226 eV

  energy without entropy =     -140.26738906  energy(sigma->0) =     -140.27048066


--------------------------------------------------------------------------------------------------------




----------------------------------------- Iteration    1(  16)  ---------------------------------------


    POTLOK:  cpu time    0.10: real time    0.10
    SETDIJ:  cpu time    0.09: real time    0.09
     EDDAV:  cpu time    4.72: real time    4.72
       DOS:  cpu time    0.00: real time    0.00
    CHARGE:  cpu time    0.38: real time    0.38
    MIXING:  cpu time    0.01: real time    0.01
    --------------------------------------------
      LOOP:  cpu time    5.29: real time    5.30

 eigenvalue-minimisations  :  3328
 total energy-change (2. order) : 0.5542612E-02  (-0.1104807E-02)
 number of electron      99.0000001 magnetization 
 augmentation part        6.3312974 magnetization 

 Broyden mixing:
  rms(total) = 0.19746E-01    rms(broyden)= 0.19745E-01
  rms(prec ) = 0.22488E-01
  weight for this iteration     100.00

 eigenvalues of (default mixing * dielectric matrix)
  average eigenvalue GAMMA=   1.6298
  5.3450  2.8366  2.4009  1.2203  1.2203  0.9828  0.9828  0.8845  0.8845  0.4563
  0.7137

 Free energy of the ion-electron system (eV)
  ---------------------------------------------------
  alpha Z        PSCENC =       125.19930004
  Ewald energy   TEWEN  =     19680.08326625
  -Hartree energ DENC   =    -25013.54881786
  -exchange      EXHF   =         0.00000000
  -V(xc)+E(xc)   XCENC  =      -327.07235791
  PAW double counting   =      6284.94069815    -5615.39299124
  entropy T*S    EENTRO =        -0.00650556
  eigenvalues    EBANDS =      -180.15146009
  atomic energy  EATOM  =      4905.68083858
  ---------------------------------------------------
  free energy    TOTEN  =      -140.26802965 eV

  energy without entropy =     -140.26152409  energy(sigma->0) =     -140.26477687


--------------------------------------------------------------------------------------------------------




----------------------------------------- Iteration    1(  17)  ---------------------------------------


    POTLOK:  cpu time    0.10: real time    0.10
    SETDIJ:  cpu time    0.09: real time    0.09
     EDDAV:  cpu time    4.74: real time    4.74
       DOS:  cpu time    0.00: real time    0.00
    CHARGE:  cpu time    0.37: real time    0.37
    MIXING:  cpu time    0.01: real time    0.01
    --------------------------------------------
      LOOP:  cpu time    5.31: real time    5.31

 eigenvalue-minimisations  :  3272
 total energy-change (2. order) : 0.2890450E-02  (-0.1809748E-02)
 number of electron      99.0000001 magnetization 
 augmentation part        6.3331587 magnetization 

 Broyden mixing:
  rms(total) = 0.99311E-02    rms(broyden)= 0.99218E-02
  rms(prec ) = 0.13109E-01
  weight for this iteration     100.00

 eigenvalues of (default mixing * dielectric matrix)
  average eigenvalue GAMMA=   1.6970
  6.7485  2.9380  2.4347  1.3840  1.0036  1.0036  0.9850  0.9850  0.8485  0.8485
  0.4563  0.7277

 Free energy of the ion-electron system (eV)
  ---------------------------------------------------
  alpha Z        PSCENC =       125.19930004
  Ewald energy   TEWEN  =     19680.08326625
  -Hartree energ DENC   =    -25015.84489821
  -exchange      EXHF   =         0.00000000
  -V(xc)+E(xc)   XCENC  =      -327.10510773
  PAW double counting   =      6289.30881124    -5619.75036596
  entropy T*S    EENTRO =        -0.00654495
  eigenvalues    EBANDS =      -177.83043847
  atomic energy  EATOM  =      4905.68083858
  ---------------------------------------------------
  free energy    TOTEN  =      -140.26513920 eV

  energy without entropy =     -140.25859425  energy(sigma->0) =     -140.26186672


--------------------------------------------------------------------------------------------------------




----------------------------------------- Iteration    1(  18)  ---------------------------------------


    POTLOK:  cpu time    0.10: real time    0.10
    SETDIJ:  cpu time    0.09: real time    0.09
     EDDAV:  cpu time    4.64: real time    4.64
       DOS:  cpu time    0.00: real time    0.00
    CHARGE:  cpu time    0.37: real time    0.37
    MIXING:  cpu time    0.01: real time    0.01
    --------------------------------------------
      LOOP:  cpu time    5.21: real time    5.21

 eigenvalue-minimisations  :  3224
 total energy-change (2. order) : 0.8918569E-03  (-0.7497565E-03)
 number of electron      99.0000001 magnetization 
 augmentation part        6.3338783 magnetization 

 Broyden mixing:
  rms(total) = 0.16489E-01    rms(broyden)= 0.16487E-01
  rms(prec ) = 0.17877E-01
  weight for this iteration     100.00

 eigenvalues of (default mixing * dielectric matrix)
  average eigenvalue GAMMA=   1.6532
  7.1280  2.9669  2.3890  1.6964  0.9166  0.9166  1.0007  1.0007  0.8575  0.8575
  0.7698  0.4562  0.5361

 Free energy of the ion-electron system (eV)
  ---------------------------------------------------
  alpha Z        PSCENC =       125.19930004
  Ewald energy   TEWEN  =     19680.08326625
  -Hartree energ DENC   =    -25017.47397928
  -exchange      EXHF   =         0.00000000
  -V(xc)+E(xc)   XCENC  =      -327.10716912
  PAW double counting   =      6291.09188345    -5621.53142088
  entropy T*S    EENTRO =        -0.00656103
  eigenvalues    EBANDS =      -176.20040535
  atomic energy  EATOM  =      4905.68083858
  ---------------------------------------------------
  free energy    TOTEN  =      -140.26424734 eV

  energy without entropy =     -140.25768631  energy(sigma->0) =     -140.26096682


--------------------------------------------------------------------------------------------------------




----------------------------------------- Iteration    1(  19)  ---------------------------------------


    POTLOK:  cpu time    0.10: real time    0.10
    SETDIJ:  cpu time    0.09: real time    0.09
     EDDAV:  cpu time    4.90: real time    4.90
       DOS:  cpu time    0.00: real time    0.00
    CHARGE:  cpu time    0.37: real time    0.37
    MIXING:  cpu time    0.01: real time    0.01
    --------------------------------------------
      LOOP:  cpu time    5.47: real time    5.47

 eigenvalue-minimisations  :  3464
 total energy-change (2. order) : 0.1428462E-02  (-0.3778626E-03)
 number of electron      99.0000001 magnetization 
 augmentation part        6.3330087 magnetization 

 Broyden mixing:
  rms(total) = 0.66869E-02    rms(broyden)= 0.66849E-02
  rms(prec ) = 0.81696E-02
  weight for this iteration     100.00

 eigenvalues of (default mixing * dielectric matrix)
  average eigenvalue GAMMA=   1.7561
  8.1123  3.1030  2.4607  2.4607  1.0108  1.0108  1.0644  1.0644  0.9023  0.9023
  0.8850  0.6716  0.4562  0.4809

 Free energy of the ion-electron system (eV)
  ---------------------------------------------------
  alpha Z        PSCENC =       125.19930004
  Ewald energy   TEWEN  =     19680.08326625
  -Hartree energ DENC   =    -25018.59140208
  -exchange      EXHF   =         0.00000000
  -V(xc)+E(xc)   XCENC  =      -327.10102407
  PAW double counting   =      6290.55435548    -5620.99589750
  entropy T*S    EENTRO =        -0.00658109
  eigenvalues    EBANDS =      -175.08567449
  atomic energy  EATOM  =      4905.68083858
  ---------------------------------------------------
  free energy    TOTEN  =      -140.26281888 eV

  energy without entropy =     -140.25623779  energy(sigma->0) =     -140.25952833


--------------------------------------------------------------------------------------------------------




----------------------------------------- Iteration    1(  20)  ---------------------------------------


    POTLOK:  cpu time    0.10: real time    0.10
    SETDIJ:  cpu time    0.09: real time    0.09
     EDDAV:  cpu time    5.71: real time    5.71
       DOS:  cpu time    0.00: real time    0.00
    CHARGE:  cpu time    0.37: real time    0.37
    MIXING:  cpu time    0.01: real time    0.01
    --------------------------------------------
      LOOP:  cpu time    6.28: real time    6.28

 eigenvalue-minimisations  :  4160
 total energy-change (2. order) : 0.1389491E-02  (-0.2702380E-03)
 number of electron      99.0000001 magnetization 
 augmentation part        6.3321079 magnetization 

 Broyden mixing:
  rms(total) = 0.36233E-02    rms(broyden)= 0.36198E-02
  rms(prec ) = 0.43995E-02
  weight for this iteration     100.00

 eigenvalues of (default mixing * dielectric matrix)
  average eigenvalue GAMMA=   2.1554
 12.7863  4.6897  2.7791  2.4265  1.4249  1.0315  1.0315  1.0462  0.8470  0.8470
  0.8949  0.8949  0.7007  0.4563  0.4738

 Free energy of the ion-electron system (eV)
  ---------------------------------------------------
  alpha Z        PSCENC =       125.19930004
  Ewald energy   TEWEN  =     19680.08326625
  -Hartree energ DENC   =    -25019.87505845
  -exchange      EXHF   =         0.00000000
  -V(xc)+E(xc)   XCENC  =      -327.09304502
  PAW double counting   =      6284.02947385    -5614.47241051
  entropy T*S    EENTRO =        -0.00659223
  eigenvalues    EBANDS =      -173.80720191
  atomic energy  EATOM  =      4905.68083858
  ---------------------------------------------------
  free energy    TOTEN  =      -140.26142939 eV

  energy without entropy =     -140.25483716  energy(sigma->0) =     -140.25813327


--------------------------------------------------------------------------------------------------------




----------------------------------------- Iteration    1(  21)  ---------------------------------------


    POTLOK:  cpu time    0.10: real time    0.10
    SETDIJ:  cpu time    0.09: real time    0.09
     EDDAV:  cpu time    4.81: real time    4.81
       DOS:  cpu time    0.00: real time    0.00
    CHARGE:  cpu time    0.39: real time    0.39
    MIXING:  cpu time    0.01: real time    0.01
    --------------------------------------------
      LOOP:  cpu time    5.40: real time    5.40

 eigenvalue-minimisations  :  3360
 total energy-change (2. order) : 0.9140778E-04  (-0.3009266E-03)
 number of electron      99.0000001 magnetization 
 augmentation part        6.3315781 magnetization 

 Broyden mixing:
  rms(total) = 0.74894E-02    rms(broyden)= 0.74881E-02
  rms(prec ) = 0.76458E-02
  weight for this iteration     100.00

 eigenvalues of (default mixing * dielectric matrix)
  average eigenvalue GAMMA=   2.0978
 13.3807  5.0065  2.7745  2.4147  1.4314  1.0194  1.0194  1.0348  0.8452  0.8452
  0.8980  0.8980  0.7060  0.4563  0.4997  0.3353

 Free energy of the ion-electron system (eV)
  ---------------------------------------------------
  alpha Z        PSCENC =       125.19930004
  Ewald energy   TEWEN  =     19680.08326625
  -Hartree energ DENC   =    -25020.75092960
  -exchange      EXHF   =         0.00000000
  -V(xc)+E(xc)   XCENC  =      -327.08775645
  PAW double counting   =      6283.10542560    -5613.55042334
  entropy T*S    EENTRO =        -0.00658909
  eigenvalues    EBANDS =      -172.93446997
  atomic energy  EATOM  =      4905.68083858
  ---------------------------------------------------
  free energy    TOTEN  =      -140.26133798 eV

  energy without entropy =     -140.25474889  energy(sigma->0) =     -140.25804343


--------------------------------------------------------------------------------------------------------




----------------------------------------- Iteration    1(  22)  ---------------------------------------


    POTLOK:  cpu time    0.10: real time    0.10
    SETDIJ:  cpu time    0.09: real time    0.09
     EDDAV:  cpu time    4.16: real time    4.16
       DOS:  cpu time    0.00: real time    0.00
    CHARGE:  cpu time    0.37: real time    0.37
    MIXING:  cpu time    0.01: real time    0.01
    --------------------------------------------
      LOOP:  cpu time    4.73: real time    4.73

 eigenvalue-minimisations  :  2800
 total energy-change (2. order) :-0.1849751E-03  (-0.2549360E-03)
 number of electron      99.0000001 magnetization 
 augmentation part        6.3311284 magnetization 

 Broyden mixing:
  rms(total) = 0.87807E-02    rms(broyden)= 0.87793E-02
  rms(prec ) = 0.89193E-02
  weight for this iteration     100.00

 eigenvalues of (default mixing * dielectric matrix)
  average eigenvalue GAMMA=   2.1942
 15.6492  5.4189  2.8425  2.4373  1.4312  1.0059  1.0059  1.1297  0.9188  0.9188
  0.8205  0.8205  0.6902  0.6418  0.6418  0.4563  0.4711

 Free energy of the ion-electron system (eV)
  ---------------------------------------------------
  alpha Z        PSCENC =       125.19930004
  Ewald energy   TEWEN  =     19680.08326625
  -Hartree energ DENC   =    -25020.91363722
  -exchange      EXHF   =         0.00000000
  -V(xc)+E(xc)   XCENC  =      -327.08452603
  PAW double counting   =      6283.34230833    -5613.78845769
  entropy T*S    EENTRO =        -0.00657500
  eigenvalues    EBANDS =      -172.77404024
  atomic energy  EATOM  =      4905.68083858
  ---------------------------------------------------
  free energy    TOTEN  =      -140.26152296 eV

  energy without entropy =     -140.25494796  energy(sigma->0) =     -140.25823546


--------------------------------------------------------------------------------------------------------




----------------------------------------- Iteration    1(  23)  ---------------------------------------


    POTLOK:  cpu time    0.10: real time    0.10
    SETDIJ:  cpu time    0.09: real time    0.09
     EDDAV:  cpu time    4.40: real time    4.40
       DOS:  cpu time    0.00: real time    0.00
    CHARGE:  cpu time    0.37: real time    0.37
    MIXING:  cpu time    0.01: real time    0.01
    --------------------------------------------
      LOOP:  cpu time    4.97: real time    4.97

 eigenvalue-minimisations  :  3024
 total energy-change (2. order) : 0.1060284E-03  (-0.2377466E-04)
 number of electron      99.0000001 magnetization 
 augmentation part        6.3313839 magnetization 

 Broyden mixing:
  rms(total) = 0.51305E-02    rms(broyden)= 0.51302E-02
  rms(prec ) = 0.52100E-02
  weight for this iteration     100.00

 eigenvalues of (default mixing * dielectric matrix)
  average eigenvalue GAMMA=   2.3623
 18.9961  5.7858  2.8731  2.4574  1.6132  1.0613  1.0613  0.9474  0.9474  1.0989
  0.9109  0.9109  0.8488  0.8488  0.6858  0.5566  0.4564  0.4614

 Free energy of the ion-electron system (eV)
  ---------------------------------------------------
  alpha Z        PSCENC =       125.19930004
  Ewald energy   TEWEN  =     19680.08326625
  -Hartree energ DENC   =    -25020.96541454
  -exchange      EXHF   =         0.00000000
  -V(xc)+E(xc)   XCENC  =      -327.08631532
  PAW double counting   =      6282.08517209    -5612.52988194
  entropy T*S    EENTRO =        -0.00656989
  eigenvalues    EBANDS =      -172.72181220
  atomic energy  EATOM  =      4905.68083858
  ---------------------------------------------------
  free energy    TOTEN  =      -140.26141693 eV

  energy without entropy =     -140.25484703  energy(sigma->0) =     -140.25813198


--------------------------------------------------------------------------------------------------------




----------------------------------------- Iteration    1(  24)  ---------------------------------------


    POTLOK:  cpu time    0.10: real time    0.10
    SETDIJ:  cpu time    0.09: real time    0.09
     EDDAV:  cpu time    4.33: real time    4.33
       DOS:  cpu time    0.00: real time    0.00
    CHARGE:  cpu time    0.37: real time    0.37
    MIXING:  cpu time    0.01: real time    0.01
    --------------------------------------------
      LOOP:  cpu time    4.90: real time    4.90

 eigenvalue-minimisations  :  2968
 total energy-change (2. order) : 0.4117615E-04  (-0.2400898E-04)
 number of electron      99.0000001 magnetization 
 augmentation part        6.3317666 magnetization 

 Broyden mixing:
  rms(total) = 0.15448E-02    rms(broyden)= 0.15424E-02
  rms(prec ) = 0.15687E-02
  weight for this iteration     100.00

 eigenvalues of (default mixing * dielectric matrix)
  average eigenvalue GAMMA=   2.4644
 20.9905  6.0689  2.8928  2.5043  2.1715  1.0905  1.0905  1.2307  1.2307  1.0761
  0.9101  0.9101  0.7776  0.7776  0.7603  0.7603  0.6607  0.4563  0.4641

 Free energy of the ion-electron system (eV)
  ---------------------------------------------------
  alpha Z        PSCENC =       125.19930004
  Ewald energy   TEWEN  =     19680.08326625
  -Hartree energ DENC   =    -25021.00478551
  -exchange      EXHF   =         0.00000000
  -V(xc)+E(xc)   XCENC  =      -327.08939608
  PAW double counting   =      6281.46995977    -5611.91313669
  entropy T*S    EENTRO =        -0.00657253
  eigenvalues    EBANDS =      -172.68084959
  atomic energy  EATOM  =      4905.68083858
  ---------------------------------------------------
  free energy    TOTEN  =      -140.26137575 eV

  energy without entropy =     -140.25480322  energy(sigma->0) =     -140.25808949


--------------------------------------------------------------------------------------------------------




----------------------------------------- Iteration    1(  25)  ---------------------------------------


    POTLOK:  cpu time    0.10: real time    0.10
    SETDIJ:  cpu time    0.09: real time    0.09
     EDDAV:  cpu time    3.56: real time    3.56
       DOS:  cpu time    0.00: real time    0.00
    --------------------------------------------
      LOOP:  cpu time    3.75: real time    3.75

 eigenvalue-minimisations  :  2208
 total energy-change (2. order) : 0.5823667E-06  (-0.2406614E-05)
 number of electron      99.0000001 magnetization 
 augmentation part        6.3317666 magnetization 

 Free energy of the ion-electron system (eV)
  ---------------------------------------------------
  alpha Z        PSCENC =       125.19930004
  Ewald energy   TEWEN  =     19680.08326625
  -Hartree energ DENC   =    -25021.00251438
  -exchange      EXHF   =         0.00000000
  -V(xc)+E(xc)   XCENC  =      -327.08925386
  PAW double counting   =      6281.41590486    -5611.85898547
  entropy T*S    EENTRO =        -0.00657268
[...]
     53       5.2240      0.00000
     54       5.4553      0.00000
     55       6.1022      0.00000
     56       6.4446      0.00000
     57       7.6268      0.00000
     58       7.8872      0.00000
     59       8.6011      0.00000
     60       8.7348      0.00000
     61       8.9047      0.00000
     62       8.9516      0.00000
     63       9.3960      0.00000
     64       9.5304      0.00000

 k-point    19 :       0.3077    0.2308   -0.0000
  band No.  band energies     occupation 
      1     -13.4431      2.00000
      2     -13.4422      2.00000
      3     -12.6027      2.00000
      4     -12.5773      2.00000
      5     -12.5427      2.00000
      6     -12.5003      2.00000
      7     -12.4562      2.00000
      8     -12.4156      2.00000
      9     -12.3840      2.00000
     10     -12.3621      2.00000
     11      -1.0208      2.00000
     12      -1.0190      2.00000
     13      -0.6720      2.00000
     14      -0.6656      2.00000
     15      -0.6306      2.00000
     16      -0.5246      2.00000
     17      -0.3742      2.00000
     18      -0.3144      2.00000
     19      -0.2245      2.00000
     20      -0.2174      2.00000
     21      -0.0509      2.00000
     22       0.1393      2.00000
     23       0.2447      2.00000
     24       0.4677      2.00000
     25       0.4966      2.00000
     26       0.6750      2.00000
     27       0.8280      2.00000
     28       0.8379      2.00000
     29       0.8497      2.00000
     30       1.0286      2.00000
     31       1.0387      2.00000
     32       1.2056      2.00000
     33       1.2459      2.00000
     34       1.3655      2.00000
     35       1.4835      2.00000
     36       1.5710      2.00000
     37       1.6881      2.00000
     38       1.8673      2.00000
     39       2.0266      2.00000
     40       2.1153      2.00000
     41       2.1877      2.00000
     42       2.2869      2.00000
     43       2.3759      2.00000
     44       2.4800      2.00000
     45       2.5748      2.00000
     46       3.1595      2.00000
     47       3.1620      2.00000
     48       3.5986      2.00000
     49       4.1314      2.00000
     50       4.1609      2.00000
     51       4.3307      2.00000
     52       4.3415      2.00000
     53       4.8374      0.00000
     54       4.8675      0.00000
     55       5.8814      0.00000
     56       6.4930      0.00000
     57       6.9032      0.00000
     58       7.0902      0.00000
     59       7.3427      0.00000
     60       8.4022      0.00000
     61       8.5246      0.00000
     62       8.6710      0.00000
     63       9.1809      0.00000
     64       9.3485      0.00000

 k-point    20 :       0.3846    0.2308    0.0000
  band No.  band energies     occupation 
      1     -13.4076      2.00000
      2     -13.4068      2.00000
      3     -12.5094      2.00000
      4     -12.4947      2.00000
      5     -12.4781      2.00000
      6     -12.4565      2.00000
      7     -12.4331      2.00000
      8     -12.4109      2.00000
      9     -12.3940      2.00000
     10     -12.3797      2.00000
     11      -0.8214      2.00000
     12      -0.8152      2.00000
     13      -0.6401      2.00000
     14      -0.6318      2.00000
     15      -0.5856      2.00000
     16      -0.4004      2.00000
     17      -0.1968      2.00000
     18      -0.1926      2.00000
     19      -0.1446      2.00000
     20      -0.1025      2.00000
     21       0.1228      2.00000
     22       0.1308      2.00000
     23       0.6631      2.00000
     24       0.6875      2.00000
     25       0.8129      2.00000
     26       0.8156      2.00000
     27       0.8399      2.00000
     28       0.8509      2.00000
     29       0.9000      2.00000
     30       0.9146      2.00000
     31       0.9878      2.00000
     32       1.1177      2.00000
     33       1.2659      2.00000
     34       1.4232      2.00000
     35       1.5721      2.00000
     36       1.5777      2.00000
     37       1.7305      2.00000
     38       1.7372      2.00000
     39       1.9298      2.00000
     40       1.9337      2.00000
     41       2.0506      2.00000
     42       2.0707      2.00000
     43       2.1859      2.00000
     44       2.2900      2.00000
     45       2.3321      2.00000
     46       2.3517      2.00000
     47       2.3593      2.00000
     48       2.7451      2.00000
     49       4.0315      2.00000
     50       4.5134      1.44421
     51       4.5211      1.29038
     52       4.9098      0.00000
     53       5.2868      0.00000
     54       5.3518      0.00000
     55       5.4264      0.00000
     56       5.7923      0.00000
     57       5.9940      0.00000
     58       6.0612      0.00000
     59       7.8266      0.00000
     60       8.1515      0.00000
     61       8.3941      0.00000
     62       8.5952      0.00000
     63       8.8205      0.00000
     64       9.6441      0.00000

 k-point    21 :       0.3077    0.3077    0.0000
  band No.  band energies     occupation 
      1     -13.3924      2.00000
      2     -13.3916      2.00000
      3     -12.4754      2.00000
      4     -12.4627      2.00000
      5     -12.4504      2.00000
      6     -12.4348      2.00000
      7     -12.4188      2.00000
      8     -12.4045      2.00000
      9     -12.3950      2.00000
     10     -12.3841      2.00000
     11      -0.6804      2.00000
     12      -0.6777      2.00000
     13      -0.4314      2.00000
     14      -0.4267      2.00000
     15      -0.2712      2.00000
     16      -0.2565      2.00000
     17      -0.1446      2.00000
     18      -0.1204      2.00000
     19      -0.0487      2.00000
     20       0.0494      2.00000
     21       0.1130      2.00000
     22       0.2452      2.00000
     23       0.3449      2.00000
     24       0.3876      2.00000
     25       0.5461      2.00000
     26       0.5721      2.00000
     27       0.5804      2.00000
     28       0.7357      2.00000
     29       0.7789      2.00000
     30       0.8236      2.00000
     31       0.9657      2.00000
     32       1.0215      2.00000
     33       1.0751      2.00000
     34       1.5656      2.00000
     35       1.5689      2.00000
     36       1.8832      2.00000
     37       2.0116      2.00000
     38       2.0946      2.00000
     39       2.1205      2.00000
     40       2.1723      2.00000
     41       2.1809      2.00000
     42       2.2091      2.00000
     43       2.2429      2.00000
     44       2.2987      2.00000
     45       2.3139      2.00000
     46       2.4976      2.00000
     47       2.8277      2.00000
     48       2.8293      2.00000
     49       3.1785      2.00000
     50       3.1796      2.00000
     51       3.8758      2.00000
     52       4.2126      2.00000
     53       5.0224      0.00000
     54       5.3913      0.00000
     55       5.5502      0.00000
     56       6.3251      0.00000
     57       6.5788      0.00000
     58       6.7610      0.00000
     59       6.8449      0.00000
     60       7.4782      0.00000
     61       7.5793      0.00000
     62       8.0624      0.00000
     63       9.3598      0.00000
     64       9.5577      0.00000


--------------------------------------------------------------------------------------------------------


 soft charge-density along one line, spin component           1
         0         1         2         3         4         5         6         7         8         9
 total charge-density along one line
 
 pseudopotential strength for first ion, spin component:           1
 12.194   0.000 -14.838   0.000  -0.000   0.000   0.025   0.000   0.000   0.000   0.000   0.000  -0.031   0.000  -0.000   0.000
-14.838   0.000  18.074   0.000   0.000   0.000  -0.031   0.000  -0.000   0.000  -0.000   0.000   0.039   0.000   0.000   0.000
 -0.000   0.000   0.000   0.000  -8.317   0.000  -0.000   0.000   0.000   0.000   9.958   0.000   0.000   0.000  -0.000   0.000
  0.025   0.000  -0.031   0.000  -0.000   0.000  -8.380   0.000   0.000   0.000   0.000   0.000  10.041   0.000  -0.000   0.000
  0.000   0.000  -0.000   0.000   0.000   0.000   0.000   0.000  -8.317   0.000  -0.000   0.000  -0.000   0.000   9.958   0.000
  0.000   0.000  -0.000   0.000   9.958   0.000   0.000   0.000  -0.000   0.000 -11.760   0.000  -0.000   0.000   0.000   0.000
 -0.031   0.000   0.039   0.000   0.000   0.000  10.041   0.000  -0.000   0.000  -0.000   0.000 -11.872   0.000   0.000   0.000
 -0.000   0.000   0.000   0.000  -0.000   0.000  -0.000   0.000   9.958   0.000   0.000   0.000   0.000   0.000 -11.760   0.000
 total augmentation occupancy for first ion, spin component:           1
  2.650   0.383   0.000  -0.079  -0.000   0.000  -0.033  -0.000
  0.383   0.077   0.000  -0.078  -0.000   0.000  -0.016  -0.000
  0.000   0.000   2.133  -0.000   0.000   0.236  -0.000   0.000
 -0.079  -0.078  -0.000   2.247   0.000  -0.000   0.316   0.000
 -0.000  -0.000   0.000   0.000   2.133   0.000   0.000   0.236
  0.000   0.000   0.236  -0.000   0.000   0.029  -0.000   0.000
 -0.033  -0.016  -0.000   0.316   0.000  -0.000   0.048   0.000
 -0.000  -0.000   0.000   0.000   0.236   0.000   0.000   0.029


------------------------ aborting loop because EDIFF is reached ----------------------------------------


    CHARGE:  cpu time    0.37: real time    0.37
    FORLOC:  cpu time    0.03: real time    0.03
    FORNL :  cpu time    3.07: real time    3.08
    STRESS:  cpu time    4.03: real time    4.03
    FORCOR:  cpu time    0.13: real time    0.13
    FORHAR:  cpu time    0.05: real time    0.06
    MIXING:  cpu time    0.00: real time    0.00
    OFIELD:  cpu time    0.00: real time    0.00

  FORCE on cell =-STRESS in cart. coord.  units (eV):
  Direction    XX          YY          ZZ          XY          YZ          ZX
  --------------------------------------------------------------------------------------
  Alpha Z   125.19930   125.19930   125.19930
  Ewald   22276.58189 22276.58225-24872.09237    -0.00005    -0.00002    -0.00013
  Hartree 24060.79499 24060.79491-23100.17940    -0.00000    -0.00000     0.00005
  E(xc)    -414.42520  -414.42521  -414.99351    -0.00000     0.00000     0.00000
  Local  -47558.47115-47558.47063 46763.13592    -0.00018    -0.00000     0.00004
  n-local   -57.69222   -70.37194   -55.17034     3.13554    -1.42395     5.31017
  augment    60.75599    60.75574    59.23077     0.00018    -0.00000     0.00000
  Kinetic  1519.89604  1500.50029  1488.18807    -1.24131    -0.81697     2.50088
  Fock        0.00000     0.00000     0.00000     0.00000     0.00000     0.00000
  -------------------------------------------------------------------------------------
  Total      -3.39782    -3.39782    -6.68156     0.00000     0.00000    -0.00000
  in kB     -16.15042   -16.15041   -31.75859     0.00000     0.00000    -0.00000
  external pressure =      -21.35 kB  Pullay stress =        0.00 kB


 VOLUME and BASIS-vectors are now :
 -----------------------------------------------------------------------------
  energy-cutoff  :      520.00
  volume of cell :      337.08
      direct lattice vectors                 reciprocal lattice vectors
     2.600457673 -1.501374484  0.000000000     0.384547693  0.000000000 -0.000000000
     0.000000000  3.002748968  0.000000000     0.192273847  0.333028172 -0.000000000
     0.000000000 -0.000000000 43.167674440     0.000000000  0.000000000  0.023165482

  length of vectors
     3.002749648  3.002748968 43.167674440     0.384547693  0.384547781  0.023165482


 FORCES acting on ions
    electron-ion (+dipol)            ewald-force                    non-local-force                 convergence-correction
 -----------------------------------------------------------------------------------------------
   0.248E-05 -.496E-06 0.145E+04   0.242E-04 -.270E-04 -.144E+04   -.171E-15 0.388E-17 -.100E+02   -.306E-11 0.706E-10 0.215E-01
   0.106E-02 -.184E-02 0.113E+04   0.593E-04 -.101E-03 -.113E+04   0.228E-18 -.869E-18 0.420E-02   -.496E-08 0.865E-08 0.183E-01
   -.977E-09 0.139E-08 0.483E+03   -.204E-07 0.239E-07 -.483E+03   0.157E-18 -.379E-19 0.103E-01   -.198E-09 0.271E-09 -.747E-02
   0.107E-02 -.185E-02 0.161E+03   0.578E-04 -.100E-03 -.161E+03   0.244E-18 -.372E-19 0.152E-01   -.988E-10 0.986E-10 -.146E-01
   0.147E-08 -.158E-08 -.483E+03   -.302E-08 0.240E-08 0.483E+03   -.130E-19 -.131E-19 -.106E-02   -.326E-11 0.209E-10 -.656E-02
   0.107E-02 -.185E-02 -.806E+03   0.579E-04 -.100E-03 0.806E+03   -.326E-18 0.620E-19 -.201E-01   0.410E-08 -.702E-08 -.129E-02
   -.248E-05 0.498E-06 -.145E+04   -.242E-04 0.270E-04 0.144E+04   0.164E-15 -.316E-16 0.100E+02   0.372E-09 -.619E-09 -.926E-02
   -.107E-02 0.185E-02 0.805E+03   -.579E-04 0.100E-03 -.805E+03   0.159E-18 -.153E-19 0.883E-02   0.618E-08 -.107E-07 0.527E-02
   -.107E-02 0.185E-02 -.161E+03   -.578E-04 0.100E-03 0.161E+03   0.150E-18 -.234E-19 0.783E-02   -.349E-08 0.599E-08 -.132E-01
   -.106E-02 0.184E-02 -.113E+04   -.593E-04 0.101E-03 0.113E+04   -.855E-18 0.981E-20 -.254E-01   -.232E-08 0.401E-08 -.299E-02
   0.519E-08 0.854E-08 0.322E+03   -.257E-07 0.291E-07 -.322E+03   0.682E-19 -.200E-20 0.519E-02   -.702E-10 0.127E-09 0.399E-02
   -.397E-08 -.708E-08 -.660E-01   0.287E-07 -.322E-07 0.666E-01   0.748E-20 0.280E-19 -.225E-02   -.202E-09 0.315E-09 -.450E-02
   -.859E-09 0.180E-08 -.322E+03   -.117E-07 0.130E-07 0.322E+03   -.472E-19 -.584E-20 -.244E-02   0.273E-09 -.449E-09 -.832E-03
   0.487E-04 -.816E-04 0.434E+03   -.545E-04 0.903E-04 -.434E+03   0.201E-17 -.698E-17 0.103E+00   0.985E-10 -.134E-09 0.673E-02
   0.438E-04 -.759E-04 0.107E+03   -.493E-04 0.855E-04 -.107E+03   0.129E-19 -.401E-19 -.151E-02   -.281E-09 0.455E-09 -.356E-02
   0.438E-04 -.759E-04 -.215E+03   -.494E-04 0.855E-04 0.215E+03   -.290E-20 -.131E-19 -.107E-02   0.855E-10 -.138E-09 -.132E-02
   -.438E-04 0.759E-04 0.215E+03   0.494E-04 -.855E-04 -.215E+03   -.134E-20 -.683E-20 0.129E-03   0.676E-10 -.138E-09 -.183E-03
   -.438E-04 0.758E-04 -.107E+03   0.493E-04 -.855E-04 0.107E+03   -.316E-19 -.265E-19 -.166E-02   -.523E-10 0.778E-10 -.318E-02
   -.487E-04 0.816E-04 -.434E+03   0.546E-04 -.903E-04 0.434E+03   -.115E-17 -.690E-17 -.103E+00   0.169E-09 -.270E-09 -.245E-02
   -.107E-08 -.120E-09 0.139E+01   0.207E-08 -.205E-08 -.139E+01   0.852E-19 -.200E-20 0.518E-02   0.111E-12 0.323E-12 0.253E-04
   -.720E-06 -.645E-07 0.804E+03   0.297E-05 -.279E-05 -.800E+03   -.811E-16 0.167E-17 -.433E+01   0.312E-12 0.157E-11 0.896E-02
   0.156E-04 -.262E-04 0.631E+03   -.274E-05 0.259E-05 -.631E+03   -.301E-16 0.281E-16 -.871E+00   0.934E-11 -.138E-10 0.655E-02
   -.148E-04 0.249E-04 0.158E+03   0.228E-05 -.218E-05 -.159E+03   0.184E-16 -.642E-18 0.166E+01   -.566E-11 0.111E-10 0.247E-02
   0.722E-06 0.639E-07 -.804E+03   -.298E-05 0.279E-05 0.800E+03   0.672E-16 -.294E-16 0.432E+01   0.891E-11 -.700E-11 -.438E-02
   0.148E-04 -.249E-04 -.155E+03   -.228E-05 0.218E-05 0.156E+03   -.448E-17 -.110E-15 -.166E+01   0.412E-11 -.789E-11 -.225E-02
   -.156E-04 0.262E-04 -.632E+03   0.275E-05 -.260E-05 0.631E+03   -.254E-16 0.274E-16 0.872E+00   0.247E-12 -.349E-11 -.442E-02
 -----------------------------------------------------------------------------------------------
   -.179E-07 0.187E-07 0.922E-02   0.468E-13 0.199E-13 -.216E-11   -.618E-16 -.126E-15 -.990E-03   -.309E-09 0.573E-09 -.862E-02
 
 
 POSITION                                       TOTAL-FORCE (eV/Angst)
 -----------------------------------------------------------------------------------
      0.00000     -0.00000     11.65765        -0.000000      0.000000     -0.007360
      0.86682      1.50138     14.03526        -0.000000      0.000000     -0.002321
      0.00000     -0.00000     18.98944         0.000000     -0.000000      0.005289
      0.86682      1.50138     21.46760         0.000000      0.000000      0.007104
      0.00000     -0.00000     26.42431        -0.000000     -0.000000     -0.001041
      0.86682      1.50138     28.90199        -0.000000     -0.000000     -0.009762
      0.00000     -0.00000     33.75527         0.000000     -0.000000      0.006671
      1.73364     -0.00000     16.51177         0.000000     -0.000000      0.004912
      1.73364     -0.00000     23.94613         0.000000     -0.000000      0.003066
      1.73364     -0.00000     31.37836        -0.000000      0.000000     -0.006986
      0.00000     -0.00000     15.27327         0.000000     -0.000000      0.005958
      0.00000     -0.00000     22.70716        -0.000000      0.000000     -0.006112
      0.00000     -0.00000     30.14002         0.000000     -0.000000      0.003203
      1.73364     -0.00000     12.79284         0.000000     -0.000000      0.006505
      1.73364     -0.00000     20.22877        -0.000000      0.000000     -0.004251
      1.73364     -0.00000     27.66316        -0.000000     -0.000000     -0.001176
      0.86682      1.50138     17.75067         0.000000     -0.000000      0.000185
      0.86682      1.50138     25.18539        -0.000000      0.000000     -0.004065
      0.86682      1.50138     32.62028        -0.000000     -0.000000     -0.002115
      0.00000     -0.00000      1.13247         0.000000     -0.000000      0.001409
      0.00000     -0.00000      9.92820         0.000000     -0.000000      0.014515
      1.73364     -0.00000      7.70346         0.000000     -0.000000      0.008359
      0.86682      1.50138      3.42330        -0.000000     -0.000000     -0.002985
      0.00000     -0.00000     35.48467        -0.000000      0.000000     -0.015660
      1.73364     -0.00000     42.00973         0.000000     -0.000000      0.005837
      0.86682      1.50138     37.70784        -0.000000      0.000000     -0.009180
 -----------------------------------------------------------------------------------
    total drift:                               -0.000000      0.000000     -0.000390


--------------------------------------------------------------------------------------------------------



  FREE ENERGIE OF THE ION-ELECTRON SYSTEM (eV)
  ---------------------------------------------------
  free  energy   TOTEN  =      -140.26149327 eV

  energy  without entropy=     -140.25492570  energy(sigma->0) =     -140.25820949
 
 d Force = 0.7834921E-05[ 0.725E-05, 0.842E-05]  d Energy = 0.4181229E-05 0.365E-05
 d Force = 0.1758190E+00[ 0.176E+00, 0.176E+00]  d Ewald  = 0.1758190E+00-0.837E-10


--------------------------------------------------------------------------------------------------------


    POTLOK:  cpu time    0.19: real time    0.19


--------------------------------------------------------------------------------------------------------




--------------------------------------------------------------------------------------------------------


  
 reached required accuracy - stopping structural energy minimisation
     LOOP+:  cpu time   31.53: real time   31.55
    4ORBIT:  cpu time    0.00: real time    0.00

 total amount of memory used by VASP on root node   149357. kBytes
========================================================================

   base      :      30000. kBytes
   nonl-proj :      15859. kBytes
   fftplans  :      55867. kBytes
   grid      :      22394. kBytes
   one-center:         56. kBytes
   wavefun   :      25181. kBytes
 
  
  
 General timing and accounting informations for this job:
 ========================================================
  
                  Total CPU time used (sec):      247.796
                            User time (sec):      244.976
                          System time (sec):        2.820
                         Elapsed time (sec):      247.927
  
                   Maximum memory used (kb):      252588.
                   Average memory used (kb):           0.
  
                          Minor page faults:       133393
                          Major page faults:            0
                 Voluntary context switches:           88
