       N       E                     dE             d eps       ncg     rms          rms(c)
DAV:   1     0.474762941847E+03    0.47476E+03   -0.41132E+04  2620   0.132E+03
DAV:   2    -0.905476243796E+02   -0.56531E+03   -0.53721E+03  3368   0.248E+02
DAV:   3    -0.147070147925E+03   -0.56523E+02   -0.56170E+02  3042   0.846E+01
DAV:   4    -0.147850741117E+03   -0.78059E+00   -0.77901E+00  3064   0.107E+01
DAV:   5    -0.147863533229E+03   -0.12792E-01   -0.12783E-01  3094   0.136E+00    0.219E+01
DAV:   6    -0.133111347381E+03    0.14752E+02   -0.83849E+01  2962   0.288E+01    0.744E+00
DAV:   7    -0.132954039825E+03    0.15731E+00   -0.14286E+00  2874   0.496E+00    0.449E+00
DAV:   8    -0.132858315848E+03    0.95724E-01   -0.44005E-01  3048   0.370E+00    0.732E-01
DAV:   9    -0.132841721257E+03    0.16595E-01   -0.69128E-02  2954   0.107E+00    0.427E-01
DAV:  10    -0.132842715917E+03   -0.99466E-03   -0.37252E-02  2960   0.810E-01    0.264E-01
DAV:  11    -0.132842525185E+03    0.19073E-03   -0.29936E-03  3082   0.295E-01    0.164E-01
DAV:  12    -0.132842683013E+03   -0.15783E-03   -0.34859E-03  3396   0.312E-01    0.642E-02
DAV:  13    -0.132842655206E+03    0.27806E-04   -0.74689E-04  2970   0.125E-01    0.469E-02
DAV:  14    -0.132842621095E+03    0.34112E-04   -0.22422E-04  2940   0.686E-02    0.184E-02
DAV:  15    -0.132842608514E+03    0.12580E-04   -0.55959E-05  2868   0.327E-02    0.477E-03
DAV:  16    -0.132842604146E+03    0.43680E-05   -0.76880E-06  1742   0.173E-02
   1 F= -.13284260E+03 E0= -.13284083E+03  d E =-.132843E+03
       N       E                     dE             d eps       ncg     rms          rms(c)
DAV:   1    -0.132842644473E+03   -0.35959E-04   -0.89948E-03  2896   0.408E-01    0.134E-02
DAV:   2    -0.132842655076E+03   -0.10603E-04   -0.22030E-04  3008   0.671E-02    0.994E-03
DAV:   3    -0.132842649540E+03    0.55364E-05   -0.11253E-05  1726   0.206E-02    0.774E-03
DAV:   4    -0.132842642087E+03    0.74532E-05   -0.42626E-06  1788   0.193E-02    0.438E-03
DAV:   5    -0.132842632371E+03    0.97152E-05   -0.10733E-05  2008   0.382E-02    0.432E-03
DAV:   6    -0.132842628926E+03    0.34451E-05   -0.17367E-05  2162   0.339E-02
   2 F= -.13284263E+03 E0= -.13284086E+03  d E =-.247801E-04
