 vasp.5.3.5 31Mar14 (build Apr 08 2024 10:12:10) complex                        
  
 executed on             LinuxIFC date 2024.07.29  17:20:54
 running on    8 total cores
 distrk:  each k-point on    8 cores,    1 groups
 distr:  one band on NCORES_PER_BAND=   4 cores,    2 groups


--------------------------------------------------------------------------------------------------------


 INCAR:
 POTCAR:    PAW_PBE O 08Apr2002                   
 POTCAR:    PAW_PBE Mg 13Apr2007                  
 POTCAR:    PAW_PBE Al 04Jan2001                  
 POTCAR:    PAW_PBE O 08Apr2002                   
   VRHFIN =O: s2p4                                                              
   LEXCH  = PE                                                                  
   EATOM  =   432.3788 eV,   31.7789 Ry                                         
                                                                                
   TITEL  = PAW_PBE O 08Apr2002                                                 
   LULTRA =        F    use ultrasoft PP ?                                      
   IUNSCR =        1    unscreen: 0-lin 1-nonlin 2-no                           
   RPACOR =    1.200    partial core radius                                     
   POMASS =   16.000; ZVAL   =    6.000    mass and valenz                      
   RCORE  =    1.520    outmost cutoff radius                                   
   RWIGS  =    1.550; RWIGS  =    0.820    wigner-seitz radius (au A)           
   ENMAX  =  400.000; ENMIN  =  300.000 eV                                      
   ICORE  =        2    local potential                                         
   LCOR   =        T    correct aug charges                                     
   LPAW   =        T    paw PP                                                  
   EAUG   =  605.392                                                            
   DEXC   =    0.000                                                            
   RMAX   =    1.553    core radius for proj-oper                               
   RAUG   =    1.300    factor for augmentation sphere                          
   RDEP   =    1.550    radius for radial grids                                 
   RDEPT  =    1.329    core radius for aug-charge                              
                                                                                
   Atomic configuration                                                         
    4 entries                                                                   
     n  l   j            E        occ.                                          
     1  0  0.50      -514.6923   2.0000                                         
     2  0  0.50       -23.9615   2.0000                                         
     2  1  0.50        -9.0305   4.0000                                         
     3  2  1.50        -9.5241   0.0000                                         
   Description                                                                  
     l       E           TYP  RCUT    TYP  RCUT                                 
     0    -23.9615318     23  1.200                                             
     0     -9.5240782     23  1.200                                             
     1     -9.0304911     23  1.520                                             
     1      8.1634956     23  1.520                                             
     2     -9.5240782      7  1.500                                             
  local pseudopotential read in
  partial core-charges read in
  partial kinetic energy density read in
  kinetic energy density of atom read in
  atomic valenz-charges read in
  non local Contribution for L=           0  read in
    real space projection operators read in
  non local Contribution for L=           0  read in
    real space projection operators read in
  non local Contribution for L=           1  read in
    real space projection operators read in
  non local Contribution for L=           1  read in
    real space projection operators read in
    PAW grid and wavefunctions read in
 
   number of l-projection  operators is LMAX  =           4
   number of lm-projection operators is LMMAX =           8
 
 POTCAR:    PAW_PBE Mg 13Apr2007                  
   VRHFIN =Mg: s2p0                                                             
   LEXCH  = PE                                                                  
   EATOM  =    23.0369 eV,    1.6932 Ry                                         
                                                                                
   TITEL  = PAW_PBE Mg 13Apr2007                                                
   LULTRA =        F    use ultrasoft PP ?                                      
   IUNSCR =        1    unscreen: 0-lin 1-nonlin 2-no                           
   RPACOR =    1.500    partial core radius                                     
   POMASS =   24.305; ZVAL   =    2.000    mass and valenz                      
   RCORE  =    2.000    outmost cutoff radius                                   
   RWIGS  =    2.880; RWIGS  =    1.524    wigner-seitz radius (au A)           
   ENMAX  =  200.000; ENMIN  =  100.000 eV                                      
   RCLOC  =    1.506    cutoff for local pot                                    
   LCOR   =        T    correct aug charges                                     
   LPAW   =        T    paw PP                                                  
   EAUG   =  454.734                                                            
   DEXC   =    0.000                                                            
   RMAX   =    2.045    core radius for proj-oper                               
   RAUG   =    1.300    factor for augmentation sphere                          
   RDEP   =    2.025    radius for radial grids                                 
   RDEPT  =    1.942    core radius for aug-charge                              
                                                                                
   Atomic configuration                                                         
    6 entries                                                                   
     n  l   j            E        occ.                                          
     1  0  0.50     -1259.6230   2.0000                                         
     2  0  0.50       -79.8442   2.0000                                         
     2  1  1.50       -46.6121   6.0000                                         
     3  0  0.50        -4.7055   2.0000                                         
     3  1  0.50        -1.3660   0.0000                                         
     3  2  1.50        -1.3606   0.0000                                         
   Description                                                                  
     l       E           TYP  RCUT    TYP  RCUT                                 
     0     -4.7054661     23  2.000                                             
     0     27.2116520     23  2.000                                             
     1      1.3605826     23  2.000                                             
     1     27.2116520     23  2.000                                             
     2     -1.3605826     23  2.000                                             
  local pseudopotential read in
  partial core-charges read in
  partial kinetic energy density read in
  atomic valenz-charges read in
  non local Contribution for L=           0  read in
    real space projection operators read in
  non local Contribution for L=           0  read in
    real space projection operators read in
  non local Contribution for L=           1  read in
    real space projection operators read in
  non local Contribution for L=           1  read in
    real space projection operators read in
  non local Contribution for L=           2  read in
    real space projection operators read in
    PAW grid and wavefunctions read in
 
   number of l-projection  operators is LMAX  =           5
   number of lm-projection operators is LMMAX =          13
 
 POTCAR:    PAW_PBE Al 04Jan2001                  
   VRHFIN =Al: s2p1                                                             
   LEXCH  = PE                                                                  
   EATOM  =    53.5387 eV,    3.9350 Ry                                         
                                                                                
   TITEL  = PAW_PBE Al 04Jan2001                                                
   LULTRA =        F    use ultrasoft PP ?                                      
   IUNSCR =        1    unscreen: 0-lin 1-nonlin 2-no                           
   RPACOR =    1.500    partial core radius                                     
   POMASS =   26.981; ZVAL   =    3.000    mass and valenz                      
   RCORE  =    1.900    outmost cutoff radius                                   
   RWIGS  =    2.650; RWIGS  =    1.402    wigner-seitz radius (au A)           
   ENMAX  =  240.300; ENMIN  =  180.225 eV                                      
   ICORE  =        2    local potential                                         
   LCOR   =        T    correct aug charges                                     
   LPAW   =        T    paw PP                                                  
   EAUG   =  291.052                                                            
   DEXC   =    0.000                                                            
   RMAX   =    1.939    core radius for proj-oper                               
   RAUG   =    1.300    factor for augmentation sphere                          
   RDEP   =    1.966    radius for radial grids                                 
   RDEPT  =    1.856    core radius for aug-charge                              
                                                                                
   Atomic configuration                                                         
    6 entries                                                                   
     n  l   j            E        occ.                                          
     1  0  0.50     -1511.1048   2.0000                                         
     2  0  0.50      -108.1629   2.0000                                         
     2  1  1.50       -69.6402   6.0000                                         
     3  0  0.50        -7.7528   2.0000                                         
     3  1  1.50        -2.7121   1.0000                                         
     3  2  2.50        -2.7212   0.0000                                         
   Description                                                                  
     l       E           TYP  RCUT    TYP  RCUT                                 
     0     -7.7528455     23  1.900                                             
     0     -3.3096929     23  1.900                                             
     1     -2.7120682     23  1.900                                             
     1     13.6058260     23  1.900                                             
     2     -2.7211652      7  1.900                                             
  local pseudopotential read in
  partial core-charges read in
  partial kinetic energy density read in
  atomic valenz-charges read in
  non local Contribution for L=           0  read in
    real space projection operators read in
  non local Contribution for L=           0  read in
    real space projection operators read in
  non local Contribution for L=           1  read in
    real space projection operators read in
  non local Contribution for L=           1  read in
    real space projection operators read in
    PAW grid and wavefunctions read in
 
   number of l-projection  operators is LMAX  =           4
   number of lm-projection operators is LMMAX =           8
 

 ----------------------------------------------------------------------------- 
|                                                                             |
|  ADVICE TO THIS USER RUNNING 'VASP/VAMP'   (HEAR YOUR MASTER'S VOICE ...):  |
|                                                                             |
|      You have a (more or less) 'large supercell' and for larger cells       |
|      it might be more efficient to use real space projection opertators     |
|      So try LREAL= Auto  in the INCAR   file.                               |
|      Mind: At the moment your POTCAR file does not contain real space       |
|       projectors, and has to be modified,  BUT if you                       |
|      want to do an extremely  accurate calculation you might also keep the  |
|      reciprocal projection scheme          (i.e. LREAL=.FALSE.)             |
|                                                                             |
 ----------------------------------------------------------------------------- 

  PAW_PBE O 08Apr2002                   :
 energy of atom  1       EATOM= -432.3788
 kinetic energy error for atom=    0.0208 (will be added to EATOM!!)
  PAW_PBE Mg 13Apr2007                  :
 energy of atom  2       EATOM=  -23.0369
 kinetic energy error for atom=    0.0000 (will be added to EATOM!!)
  PAW_PBE Al 04Jan2001                  :
 energy of atom  3       EATOM=  -53.5387
 kinetic energy error for atom=    0.0002 (will be added to EATOM!!)
 
 
 POSCAR: Layer                                   
  positions in direct lattice
  velocities in cartesian coordinates
 exchange correlation table for  LEXCH =        8
   RHO(1)=    0.500       N(1)  =     2000
   RHO(2)=  100.500       N(2)  =     4000
 


--------------------------------------------------------------------------------------------------------


 ion  position               nearest neighbor table
   1  0.000  0.000  0.352-  17 2.14  17 2.14  17 2.14  14 2.14  14 2.14  14 2.14
   2  0.333  0.667  0.410-  14 2.14  14 2.14  14 2.14  11 2.14  11 2.14  11 2.14
   3  0.000  0.000  0.526-  15 2.14  15 2.14  15 2.14  18 2.14  18 2.14  18 2.14
   4  0.333  0.667  0.584-  12 2.14  12 2.14  12 2.14  15 2.14  15 2.14  15 2.14
   5  0.000  0.000  0.699-  16 2.14  16 2.14  16 2.14  19 2.14  19 2.14  19 2.14
   6  0.333  0.667  0.757-  16 2.14  16 2.14  16 2.14  13 2.16  13 2.16  13 2.16
   7  0.667  0.333  0.294-  17 2.14  17 2.14  17 2.14  10 2.16  10 2.16  10 2.16
   8  0.667  0.333  0.468-  18 2.14  18 2.14  18 2.14  11 2.14  11 2.14  11 2.14
   9  0.667  0.333  0.642-  19 2.14  19 2.14  19 2.14  12 2.14  12 2.14  12 2.14
  10  0.000  0.000  0.264-   7 2.16   7 2.16   7 2.16  21 3.05  17 3.08  17 3.08  17 3.08
  11  0.000  0.000  0.439-   2 2.14   2 2.14   2 2.14   8 2.14   8 2.14   8 2.14  14 3.05  14 3.05
                            14 3.05  18 3.05  18 3.05  18 3.05
  12  0.000  0.000  0.613-   4 2.14   4 2.14   4 2.14   9 2.14   9 2.14   9 2.14  19 3.05  19 3.05
                            19 3.05  15 3.05  15 3.05  15 3.05
  13  0.000  0.000  0.787-   6 2.16   6 2.16   6 2.16  24 3.05  16 3.08  16 3.08  16 3.08
  14  0.667  0.333  0.381-   2 2.14   2 2.14   2 2.14   1 2.14   1 2.14   1 2.14  11 3.05  11 3.05
                            11 3.05  17 3.05  17 3.05  17 3.05
  15  0.667  0.333  0.555-   3 2.14   3 2.14   3 2.14   4 2.14   4 2.14   4 2.14  18 3.05  18 3.05
                            18 3.05  12 3.05  12 3.05  12 3.05
  16  0.667  0.333  0.728-   5 2.14   5 2.14   5 2.14   6 2.14   6 2.14   6 2.14  19 3.05  19 3.05
                            19 3.05  13 3.08  13 3.08  13 3.08
  17  0.333  0.667  0.323-   1 2.14   1 2.14   1 2.14   7 2.14   7 2.14   7 2.14  14 3.05  14 3.05
                            14 3.05  10 3.08  10 3.08  10 3.08
  18  0.333  0.667  0.497-   8 2.14   8 2.14   8 2.14   3 2.14   3 2.14   3 2.14  11 3.05  11 3.05
                            11 3.05  15 3.05  15 3.05  15 3.05
  19  0.333  0.667  0.670-   9 2.14   9 2.14   9 2.14   5 2.14   5 2.14   5 2.14  12 3.05  12 3.05
                            12 3.05  16 3.05  16 3.05  16 3.05
  20  0.000  0.000  0.026-  23 2.97  23 2.97  23 2.97  25 2.97  25 2.97  25 2.97
  21  0.000  0.000  0.194-  22 3.03  22 3.03  22 3.03  10 3.05
  22  0.667  0.333  0.137-  23 2.98  23 2.98  23 2.98  21 3.03  21 3.03  21 3.03
  23  0.333  0.667  0.081-  20 2.97  20 2.97  20 2.97  22 2.98  22 2.98  22 2.98
  24  0.000  0.000  0.857-  26 3.03  26 3.03  26 3.03  13 3.05
  25  0.667  0.333  0.970-  20 2.97  20 2.97  20 2.97  26 2.98  26 2.98  26 2.98
  26  0.333  0.667  0.915-  25 2.98  25 2.98  25 2.98  24 3.03  24 3.03  24 3.03
 
  LATTYP: Found a hexagonal cell.
 ALAT       =     2.9929628358
 C/A-ratio  =    14.5224995489
  
  Lattice vectors:
  
 A1 = (   2.5919820457,  -1.4964810762,   0.0000000000)
 A2 = (   0.0000000000,   2.9929621524,   0.0000000000)
 A3 = (   0.0000000000,  -0.0000000000,  43.4653014329)


Analysis of symmetry for initial positions (statically):
=====================================================================
 Subroutine PRICEL returns:
 Original cell was already a primitive cell.
 

 Routine SETGRP: Setting up the symmetry group for a 
 hexagonal supercell.


 Subroutine GETGRP returns: Found  6 space group operations
 (whereof  6 operations were pure point group operations)
 out of a pool of 24 trial point group operations.


The static configuration has the point symmetry C_3v.


Analysis of symmetry for dynamics (positions and initial velocities):
=====================================================================
 Subroutine PRICEL returns:
 Original cell was already a primitive cell.
 

 Routine SETGRP: Setting up the symmetry group for a 
 hexagonal supercell.


 Subroutine GETGRP returns: Found  6 space group operations
 (whereof  6 operations were pure point group operations)
 out of a pool of 24 trial point group operations.


The dynamic configuration has the point symmetry C_3v.


Analysis of constrained symmetry for selective dynamics:
=====================================================================
 Subroutine PRICEL returns:
 Original cell was already a primitive cell.
 

 Routine SETGRP: Setting up the symmetry group for a 
 hexagonal supercell.


 Subroutine GETGRP returns: Found  6 space group operations
 (whereof  6 operations were pure point group operations)
 out of a pool of 24 trial point group operations.


The constrained configuration has the point symmetry C_3v.
 
 
 KPOINTS: K-Spacing Value to Generate K-Mesh: 0.02

Automatic generation of k-mesh.
Space group operators:
 irot       det(A)        alpha          n_x          n_y          n_z        tau_x        tau_y        tau_z
    1     1.000000     0.000000     1.000000     0.000000     0.000000     0.000000     0.000000     0.000000
    2     1.000000   120.000000    -0.000000     0.000000    -1.000000     0.000000     0.000000     0.000000
    3     1.000000   120.000000    -0.000000    -0.000000     1.000000     0.000000     0.000000     0.000000
    4    -1.000000   180.000000    -0.866025     0.500000     0.000000     0.000000     0.000000     0.000000
    5    -1.000000   180.000000     0.000000     1.000000     0.000000     0.000000     0.000000     0.000000
    6    -1.000000   180.000000    -0.866025    -0.500000    -0.000000     0.000000     0.000000     0.000000
 
 Subroutine IBZKPT returns following result:
 ===========================================
 
 Found     21 irreducible k-points:
 
 Following reciprocal coordinates:
            Coordinates               Weight
  0.000000  0.000000  0.000000      1.000000
  0.076923  0.000000  0.000000      6.000000
  0.153846 -0.000000 -0.000000      6.000000
  0.230769  0.000000 -0.000000      6.000000
  0.307692 -0.000000 -0.000000      6.000000
  0.384615  0.000000 -0.000000      6.000000
  0.461538  0.000000 -0.000000      6.000000
  0.076923  0.076923  0.000000      6.000000
  0.153846  0.076923  0.000000     12.000000
  0.230769  0.076923 -0.000000     12.000000
  0.307692  0.076923 -0.000000     12.000000
  0.384615  0.076923 -0.000000     12.000000
  0.461538  0.076923  0.000000      6.000000
  0.153846  0.153846 -0.000000      6.000000
  0.230769  0.153846 -0.000000     12.000000
  0.307692  0.153846  0.000000     12.000000
  0.384615  0.153846  0.000000     12.000000
  0.230769  0.230769  0.000000      6.000000
  0.307692  0.230769  0.000000     12.000000
  0.384615  0.230769  0.000000      6.000000
  0.307692  0.307692  0.000000      6.000000
 
 Following cartesian coordinates:
            Coordinates               Weight
  0.000000  0.000000  0.000000      1.000000
  0.029677 -0.000000 -0.000000      6.000000
  0.059355 -0.000000 -0.000000      6.000000
  0.089032 -0.000000 -0.000000      6.000000
  0.118709 -0.000000 -0.000000      6.000000
  0.148387 -0.000000 -0.000000      6.000000
  0.178064 -0.000000 -0.000000      6.000000
  0.044516  0.025701  0.000000      6.000000
  0.074193  0.025701  0.000000     12.000000
  0.103871  0.025701  0.000000     12.000000
  0.133548  0.025701  0.000000     12.000000
  0.163225  0.025701  0.000000     12.000000
  0.192903  0.025701  0.000000      6.000000
  0.089032  0.051403  0.000000      6.000000
  0.118709  0.051403  0.000000     12.000000
  0.148387  0.051403  0.000000     12.000000
  0.178064  0.051403  0.000000     12.000000
  0.133548  0.077104  0.000000      6.000000
  0.163225  0.077104  0.000000     12.000000
  0.192903  0.077104  0.000000      6.000000
  0.178064  0.102805  0.000000      6.000000
 


--------------------------------------------------------------------------------------------------------




 Dimension of arrays:
   k-points           NKPTS =     21   k-points in BZ     NKDIM =     21   number of bands    NBANDS=     62
   number of dos      NEDOS =    301   number of ions     NIONS =     26
   non local maximal  LDIM  =      5   non local SUM 2l+1 LMDIM =     13
   total plane-waves  NPLWV = 186624
   max r-space proj   IRMAX =      1   max aug-charges    IRDMAX= 188267
   dimension x,y,z NGX =    24 NGY =   24 NGZ =  324
   dimension x,y,z NGXF=    48 NGYF=   48 NGZF=  648
   support grid    NGXF=    96 NGYF=   96 NGZF= 1296
   ions per type =               9  10   7
 NGX,Y,Z   is equivalent  to a cutoff of  13.33, 13.33, 12.39 a.u.
 NGXF,Y,Z  is equivalent  to a cutoff of  26.66, 26.66, 24.78 a.u.


 I would recommend the setting:
   dimension x,y,z NGX =    22 NGY =   22 NGZ =  323
 SYSTEM =  unknown system                          
 POSCAR =  Layer                                   

 Startparameter for this run:
   NWRITE =      2    write-flag & timer
   PREC   = accura    normal or accurate (medium, high low for compatibility)
   ISTART =      0    job   : 0-new  1-cont  2-samecut
   ICHARG =      2    charge: 1-file 2-atom 10-const
   ISPIN  =      1    spin polarized calculation?
   LNONCOLLINEAR =      F non collinear calculations
   LSORBIT =      F    spin-orbit coupling
   INIWAV =      1    electr: 0-lowe 1-rand  2-diag
   LASPH  =      F    aspherical Exc in radial PAW
   METAGGA=      F    non-selfconsistent MetaGGA calc.

 Electronic Relaxation 1
   ENCUT  =  520.0 eV  38.22 Ry    6.18 a.u.   5.56  5.56 80.82*2*pi/ulx,y,z
   ENINI  =  520.0     initial cutoff
   ENAUG  =  605.4 eV  augmentation charge cutoff
   NELM   =    100;   NELMIN=  6; NELMDL=  0     # of ELM steps 
   EDIFF  = 0.1E-04   stopping-criterion for ELM
   LREAL  =      F    real-space projection
   NLSPLINE    = F    spline interpolate recip. space projectors
   LCOMPAT=      F    compatible to vasp.4.4
   GGA_COMPAT  = T    GGA compatible to vasp.4.4-vasp.4.6
   LMAXPAW     = -100 max onsite density
   LMAXMIX     =    2 max onsite mixed and CHGCAR
   VOSKOWN=      0    Vosko Wilk Nusair interpolation
   ROPT   =    0.00000   0.00000   0.00000
 Ionic relaxation
   EDIFFG = -.2E-01   stopping-criterion for IOM
   NSW    =    500    number of steps for IOM
   NBLOCK =      1;   KBLOCK =    500    inner block; outer block 
   IBRION =      2    ionic relax: 0-MD 1-quasi-New 2-CG
   NFREE  =      1    steps in history (QN), initial steepest desc. (CG)
   ISIF   =      2    stress and relaxation
   IWAVPR =     11    prediction:  0-non 1-charg 2-wave 3-comb
   ISYM   =      2    0-nonsym 1-usesym 2-fastsym
   LCORR  =      T    Harris-Foulkes like correction to forces

   POTIM  = 0.5000    time-step for ionic-motion
   TEIN   =    0.0    initial temperature
   TEBEG  =    0.0;   TEEND  =   0.0 temperature during run
   SMASS  =  -3.00    Nose mass-parameter (am)
   estimated Nose-frequenzy (Omega)   =  0.10E-29 period in steps =****** mass=  -0.205E-27a.u.
   SCALEE = 1.0000    scale energy and forces
   NPACO  =    256;   APACO  = 16.0  distance and # of slots for P.C.
   PSTRESS=    0.0 pullay stress

  Mass of Ions in am
   POMASS =  16.00 24.30 26.98
  Ionic Valenz
   ZVAL   =   6.00  2.00  3.00
  Atomic Wigner-Seitz radii
   RWIGS  =  -1.00 -1.00 -1.00
  virtual crystal weights 
   VCA    =   1.00  1.00  1.00
   NELECT =      95.0000    total number of electrons
   NUPDOWN=      -1.0000    fix difference up-down

 DOS related values:
   EMIN   =  10.00;   EMAX   =-10.00  energy-range for DOS
   EFERMI =   0.00
   ISMEAR =     0;   SIGMA  =   0.05  broadening in eV -4-tet -1-fermi 0-gaus

 Electronic relaxation 2 (details)
   IALGO  =     38    algorithm
   LDIAG  =      T    sub-space diagonalisation (order eigenvalues)
   LSUBROT=      F    optimize rotation matrix (better conditioning)
   TURBO    =      0    0=normal 1=particle mesh
   IRESTART =      0    0=no restart 2=restart with 2 vectors
   NREBOOT  =      0    no. of reboots
   NMIN     =      0    reboot dimension
   EREF     =   0.00    reference energy to select bands
   IMIX   =      4    mixing-type and parameters
     AMIX     =   0.40;   BMIX     =  1.00
     AMIX_MAG =   1.60;   BMIX_MAG =  1.00
     AMIN     =   0.01
     WC   =   100.;   INIMIX=   1;  MIXPRE=   1;  MAXMIX= -45

 Intra band minimization:
   WEIMIN = 0.0010     energy-eigenvalue tresh-hold
   EBREAK =  0.40E-07  absolut break condition
   DEPER  =   0.30     relativ break condition  

   TIME   =   0.40     timestep for ELM

  volume/ion in A,a.u.               =      12.97        87.52
  Fermi-wavevector in a.u.,A,eV,Ry     =   1.073225  2.028101 15.671349  1.151812
  Thomas-Fermi vector in A             =   2.209018
 
 Write flags
   LWAVE  =      F    write WAVECAR
   LCHARG =      T    write CHGCAR
   LVTOT  =      F    write LOCPOT, total local potential
   LVHAR  =      F    write LOCPOT, Hartree potential only
   LELF   =      F    write electronic localiz. function (ELF)
   LORBIT =      0    0 simple, 1 ext, 2 COOP (PROOUT)


 Dipole corrections
   LMONO  =      F    monopole corrections only (constant potential shift)
   LDIPOL =      F    correct potential (dipole corrections)
   IDIPOL =      0    1-x, 2-y, 3-z, 4-all directions 
   EPSILON=  1.0000000 bulk dielectric constant

 Exchange correlation treatment:
   GGA     =    --    GGA type
   LEXCH   =     8    internal setting for exchange type
   VOSKOWN=      0    Vosko Wilk Nusair interpolation
   LHFCALC =     F    Hartree Fock is set to
   LHFONE  =     F    Hartree Fock one center treatment
   AEXX    =    0.0000 exact exchange contribution

 Linear response parameters
   LEPSILON=     F    determine dielectric tensor
   LRPA    =     F    only Hartree local field effects (RPA)
   LNABLA  =     F    use nabla operator in PAW spheres
   LVEL    =     F    velocity operator in full k-point grid
   LINTERFAST=   F  fast interpolation
   KINTER  =     0    interpolate to denser k-point grid
   CSHIFT  =0.1000    complex shift for real part using Kramers Kronig
   OMEGAMAX=  -1.0    maximum frequency
   DEG_THRESHOLD= 0.2000000E-02 threshold for treating states as degnerate
   RTIME   =    0.100 relaxation time in fs

 Orbital magnetization related:
   ORBITALMAG=     F  switch on orbital magnetization
   LCHIMAG   =     F  perturbation theory with respect to B field
   DQ        =  0.001000  dq finite difference perturbation B field



--------------------------------------------------------------------------------------------------------


 conjugate gradient relaxation of ions
   using selective dynamics as specified on POSCAR
 charge density and potential will be updated during run
 non-spin polarized calculation
 Variant of blocked Davidson
 Davidson routine will perform the subspace rotation
 perform sub-space diagonalisation
    after iterative eigenvector-optimisation
 modified Broyden-mixing scheme, WC =      100.0
 initial mixing is a Kerker type mixing with AMIX =  0.4000 and BMIX =      1.0000
 Hartree-type preconditioning will be used
 using additional bands           14
 reciprocal scheme for non local part
 use partial core corrections
 calculate Harris-corrections to forces 
   (improved forces if not selfconsistent)
 use gradient corrections 
 use of overlap-Matrix (Vanderbilt PP)
 Gauss-broadening in eV      SIGMA  =   0.05


--------------------------------------------------------------------------------------------------------


  energy-cutoff  :      520.00
  volume of cell :      337.19
      direct lattice vectors                 reciprocal lattice vectors
     2.591982046 -1.496481076  0.000000000     0.385805142 -0.000000000 -0.000000000
     0.000000000  2.992962152  0.000000000     0.192902571  0.334117155  0.000000000
     0.000000000 -0.000000000 43.465301433     0.000000000  0.000000000  0.023006858

  length of vectors
     2.992962836  2.992962152 43.465301433     0.385805142  0.385805230  0.023006858


 
 k-points in units of 2pi/SCALE and weight: K-Spacing Value to Generate K-Mesh: 0.02
   0.00000000  0.00000000  0.00000000       0.006
   0.02967732 -0.00000000 -0.00000000       0.036
   0.05935464 -0.00000000 -0.00000000       0.036
   0.08903196 -0.00000000 -0.00000000       0.036
   0.11870927 -0.00000000 -0.00000000       0.036
   0.14838659 -0.00000000 -0.00000000       0.036
   0.17806391 -0.00000000 -0.00000000       0.036
   0.04451598  0.02570132  0.00000000       0.036
   0.07419330  0.02570132  0.00000000       0.071
   0.10387062  0.02570132  0.00000000       0.071
   0.13354793  0.02570132  0.00000000       0.071
   0.16322525  0.02570132  0.00000000       0.071
   0.19290257  0.02570132  0.00000000       0.036
   0.08903196  0.05140264  0.00000000       0.036
   0.11870927  0.05140264  0.00000000       0.071
   0.14838659  0.05140264  0.00000000       0.071
   0.17806391  0.05140264  0.00000000       0.071
   0.13354793  0.07710396  0.00000000       0.036
   0.16322525  0.07710396  0.00000000       0.071
   0.19290257  0.07710396  0.00000000       0.036
   0.17806391  0.10280528  0.00000000       0.036
 
 k-points in reciprocal lattice and weights: K-Spacing Value to Generate K-Mesh: 0.02
   0.00000000  0.00000000  0.00000000       0.006
   0.07692308  0.00000000  0.00000000       0.036
   0.15384615 -0.00000000 -0.00000000       0.036
   0.23076923  0.00000000 -0.00000000       0.036
   0.30769231 -0.00000000 -0.00000000       0.036
   0.38461538  0.00000000 -0.00000000       0.036
   0.46153846  0.00000000 -0.00000000       0.036
   0.07692308  0.07692308  0.00000000       0.036
   0.15384615  0.07692308  0.00000000       0.071
   0.23076923  0.07692308 -0.00000000       0.071
   0.30769231  0.07692308 -0.00000000       0.071
   0.38461538  0.07692308 -0.00000000       0.071
   0.46153846  0.07692308  0.00000000       0.036
   0.15384615  0.15384615 -0.00000000       0.036
   0.23076923  0.15384615 -0.00000000       0.071
   0.30769231  0.15384615  0.00000000       0.071
   0.38461538  0.15384615  0.00000000       0.071
   0.23076923  0.23076923  0.00000000       0.036
   0.30769231  0.23076923  0.00000000       0.071
   0.38461538  0.23076923  0.00000000       0.036
   0.30769231  0.30769231  0.00000000       0.036
 
 position of ions in fractional coordinates (direct lattice) 
   0.00000000  0.00000000  0.35214493
   0.33333300  0.66666700  0.41002732
   0.00000000  0.00000000  0.52579675
   0.33333300  0.66666700  0.58369140
   0.00000000  0.00000000  0.69944067
   0.33333300  0.66666700  0.75732439
   0.66666700  0.33333300  0.29424328
   0.66666700  0.33333300  0.46789818
   0.66666700  0.33333300  0.64155945
   0.00000000  0.00000000  0.26448338
   0.00000000  0.00000000  0.43895704
   0.00000000  0.00000000  0.61260985
   0.00000000  0.00000000  0.78711232
   0.66666700  0.33333300  0.38110454
   0.66666700  0.33333300  0.55472237
   0.66666700  0.33333300  0.72838105
   0.33333300  0.66666700  0.32322305
   0.33333300  0.66666700  0.49683507
   0.33333300  0.66666700  0.67047238
   0.00000000  0.00000000  0.02578554
   0.00000000  0.00000000  0.19438780
   0.66666700  0.33333300  0.13702270
   0.33333300  0.66666700  0.08129773
   0.00000000  0.00000000  0.85717689
   0.66666700  0.33333300  0.97027284
   0.33333300  0.66666700  0.91454407
 
 position of ions in cartesian coordinates  (Angst):
   0.00000000 -0.00000000 15.30608550
   0.86399315  1.49648257 17.82196121
   0.00000000 -0.00000000 22.85391424
   0.86399315  1.49648257 25.37032276
   0.00000000 -0.00000000 30.40139950
   0.86399315  1.49648257 32.91733279
   1.72798889 -0.00000150 12.78937270
   1.72798889 -0.00000150 20.33733548
   1.72798889 -0.00000150 27.88557505
   0.00000000 -0.00000000 11.49584966
   0.00000000 -0.00000000 19.07939991
   0.00000000 -0.00000000 26.62727178
   0.00000000 -0.00000000 34.21207412
   1.72798889 -0.00000150 16.56482380
   1.72798889 -0.00000150 24.11117520
   1.72798889 -0.00000150 31.65930173
   0.86399315  1.49648257 14.04898727
   0.86399315  1.49648257 21.59508616
   0.86399315  1.49648257 29.14228410
   0.00000000 -0.00000000  1.12077637
   0.00000000 -0.00000000  8.44912446
   1.72798889 -0.00000150  5.95573317
   0.86399315  1.49648257  3.53363030
   0.00000000 -0.00000000 37.25745186
   1.72798889 -0.00000150 42.17320158
   0.86399315  1.49648257 39.75093382
 


--------------------------------------------------------------------------------------------------------


 k-point  1 :   0.0000 0.0000 0.0000  plane waves:    9233
 k-point  2 :   0.0769 0.0000 0.0000  plane waves:    9205
 k-point  3 :   0.1538-0.0000-0.0000  plane waves:    9175
 k-point  4 :   0.2308 0.0000-0.0000  plane waves:    9132
 k-point  5 :   0.3077-0.0000-0.0000  plane waves:    9078
 k-point  6 :   0.3846 0.0000-0.0000  plane waves:    9032
 k-point  7 :   0.4615 0.0000-0.0000  plane waves:    9036
 k-point  8 :   0.0769 0.0769 0.0000  plane waves:    9183
 k-point  9 :   0.1538 0.0769 0.0000  plane waves:    9140
 k-point 10 :   0.2308 0.0769-0.0000  plane waves:    9089
 k-point 11 :   0.3077 0.0769-0.0000  plane waves:    9064
 k-point 12 :   0.3846 0.0769-0.0000  plane waves:    9044
 k-point 13 :   0.4615 0.0769 0.0000  plane waves:    9002
 k-point 14 :   0.1538 0.1538-0.0000  plane waves:    9113
 k-point 15 :   0.2308 0.1538-0.0000  plane waves:    9082
 k-point 16 :   0.3077 0.1538 0.0000  plane waves:    9058
 k-point 17 :   0.3846 0.1538 0.0000  plane waves:    9024
 k-point 18 :   0.2308 0.2308 0.0000  plane waves:    9076
 k-point 19 :   0.3077 0.2308 0.0000  plane waves:    9031
 k-point 20 :   0.3846 0.2308 0.0000  plane waves:    9066
 k-point 21 :   0.3077 0.3077 0.0000  plane waves:    9060

 maximum and minimum number of plane-waves per node :      2325     2233

 maximum number of plane-waves:      9233
 maximum index in each direction: 
   IXMAX=    5   IYMAX=    5   IZMAX=   80
   IXMIN=   -6   IYMIN=   -5   IZMIN=  -80

 NGX is ok and might be reduce to  24
 NGY is ok and might be reduce to  22
 NGZ is ok and might be reduce to 322

 parallel 3D FFT for wavefunctions:
    minimum data exchange during FFTs selected (reduces bandwidth)
 parallel 3D FFT for charge:
    minimum data exchange during FFTs selected (reduces bandwidth)


 total amount of memory used by VASP on root node   149084. kBytes
========================================================================

   base      :      30000. kBytes
   nonl-proj :      16040. kBytes
   fftplans  :      55867. kBytes
   grid      :      22394. kBytes
   one-center:         56. kBytes
   wavefun   :      24727. kBytes
 
     INWAV:  cpu time    0.00: real time    0.00
 Broyden mixing: mesh for mixing (old mesh)
   NGX = 11   NGY = 11   NGZ =161
  (NGX  = 48   NGY  = 48   NGZ  =648)
  gives a total of  19481 points

 initial charge density was supplied:
 charge density of overlapping atoms calculated
 number of electron      95.0000000 magnetization 
 keeping initial charge density in first step


--------------------------------------------------------------------------------------------------------


 Maximum index for augmentation-charges        22652 (set IRDMAX)


--------------------------------------------------------------------------------------------------------


 First call to EWALD:  gamma=   0.255
 Maximum number of real-space cells 7x 7x 1
 Maximum number of reciprocal cells 1x 1x15

 FEWALD executed in parallel
    FEWALD:  cpu time    0.00: real time    0.00


----------------------------------------- Iteration    1(   1)  ---------------------------------------


    POTLOK:  cpu time    0.12: real time    0.12
    SETDIJ:  cpu time    0.12: real time    0.12
     EDDAV:  cpu time    4.26: real time    4.30
       DOS:  cpu time    0.00: real time    0.00
    --------------------------------------------
      LOOP:  cpu time    4.50: real time    4.54

 eigenvalue-minimisations  :  2620
 total energy-change (2. order) : 0.4747629E+03  (-0.4113245E+04)
 number of electron      95.0000000 magnetization 
 augmentation part       95.0000000 magnetization 

 Free energy of the ion-electron system (eV)
  ---------------------------------------------------
  alpha Z        PSCENC =       119.91480215
  Ewald energy   TEWEN  =     16408.28404421
  -Hartree energ DENC   =    -21135.99032751
  -exchange      EXHF   =         0.00000000
  -V(xc)+E(xc)   XCENC  =      -419.87705816
  PAW double counting   =      4235.41334458    -3509.29226066
  entropy T*S    EENTRO =        -0.00516015
  eigenvalues    EBANDS =       279.95584157
  atomic energy  EATOM  =      4496.35971583
  ---------------------------------------------------
  free energy    TOTEN  =       474.76294185 eV

  energy without entropy =      474.76810199  energy(sigma->0) =      474.76552192


--------------------------------------------------------------------------------------------------------




----------------------------------------- Iteration    1(   2)  ---------------------------------------


     EDDAV:  cpu time    5.16: real time    5.16
       DOS:  cpu time    0.00: real time    0.00
    --------------------------------------------
      LOOP:  cpu time    5.16: real time    5.17

 eigenvalue-minimisations  :  3368
 total energy-change (2. order) :-0.5653106E+03  (-0.5372106E+03)
 number of electron      95.0000000 magnetization 
 augmentation part       95.0000000 magnetization 

 Free energy of the ion-electron system (eV)
  ---------------------------------------------------
  alpha Z        PSCENC =       119.91480215
  Ewald energy   TEWEN  =     16408.28404421
  -Hartree energ DENC   =    -21135.99032751
  -exchange      EXHF   =         0.00000000
  -V(xc)+E(xc)   XCENC  =      -419.87705816
  PAW double counting   =      4235.41334458    -3509.29226066
  entropy T*S    EENTRO =        -0.00241272
  eigenvalues    EBANDS =      -285.35747208
  atomic energy  EATOM  =      4496.35971583
  ---------------------------------------------------
  free energy    TOTEN  =       -90.54762438 eV

  energy without entropy =      -90.54521165  energy(sigma->0) =      -90.54641802


--------------------------------------------------------------------------------------------------------




----------------------------------------- Iteration    1(   3)  ---------------------------------------


     EDDAV:  cpu time    4.90: real time    4.91
       DOS:  cpu time    0.00: real time    0.00
    --------------------------------------------
      LOOP:  cpu time    4.90: real time    4.91

 eigenvalue-minimisations  :  3042
 total energy-change (2. order) :-0.5652252E+02  (-0.5617049E+02)
 number of electron      95.0000000 magnetization 
 augmentation part       95.0000000 magnetization 

 Free energy of the ion-electron system (eV)
  ---------------------------------------------------
  alpha Z        PSCENC =       119.91480215
  Ewald energy   TEWEN  =     16408.28404421
  -Hartree energ DENC   =    -21135.99032751
  -exchange      EXHF   =         0.00000000
  -V(xc)+E(xc)   XCENC  =      -419.87705816
  PAW double counting   =      4235.41334458    -3509.29226066
  entropy T*S    EENTRO =        -0.00499785
  eigenvalues    EBANDS =      -341.87741050
  atomic energy  EATOM  =      4496.35971583
  ---------------------------------------------------
  free energy    TOTEN  =      -147.07014792 eV

  energy without entropy =     -147.06515007  energy(sigma->0) =     -147.06764900


--------------------------------------------------------------------------------------------------------




----------------------------------------- Iteration    1(   4)  ---------------------------------------


     EDDAV:  cpu time    4.89: real time    4.90
       DOS:  cpu time    0.00: real time    0.00
    --------------------------------------------
      LOOP:  cpu time    4.89: real time    4.90

 eigenvalue-minimisations  :  3064
 total energy-change (2. order) :-0.7805932E+00  (-0.7790090E+00)
 number of electron      95.0000000 magnetization 
 augmentation part       95.0000000 magnetization 

 Free energy of the ion-electron system (eV)
  ---------------------------------------------------
  alpha Z        PSCENC =       119.91480215
  Ewald energy   TEWEN  =     16408.28404421
  -Hartree energ DENC   =    -21135.99032751
  -exchange      EXHF   =         0.00000000
  -V(xc)+E(xc)   XCENC  =      -419.87705816
  PAW double counting   =      4235.41334458    -3509.29226066
  entropy T*S    EENTRO =        -0.00495649
  eigenvalues    EBANDS =      -342.65804505
  atomic energy  EATOM  =      4496.35971583
  ---------------------------------------------------
  free energy    TOTEN  =      -147.85074112 eV

  energy without entropy =     -147.84578462  energy(sigma->0) =     -147.84826287


--------------------------------------------------------------------------------------------------------




----------------------------------------- Iteration    1(   5)  ---------------------------------------


     EDDAV:  cpu time    4.89: real time    4.90
       DOS:  cpu time    0.00: real time    0.00
    CHARGE:  cpu time    0.39: real time    0.39
    MIXING:  cpu time    0.00: real time    0.00
    --------------------------------------------
      LOOP:  cpu time    5.28: real time    5.29

 eigenvalue-minimisations  :  3094
 total energy-change (2. order) :-0.1279211E-01  (-0.1278323E-01)
 number of electron      95.0000000 magnetization 
 augmentation part        6.9140266 magnetization 

 Broyden mixing:
  rms(total) = 0.21944E+01    rms(broyden)= 0.21939E+01
  rms(prec ) = 0.22547E+01
  weight for this iteration     100.00

 Free energy of the ion-electron system (eV)
  ---------------------------------------------------
  alpha Z        PSCENC =       119.91480215
  Ewald energy   TEWEN  =     16408.28404421
  -Hartree energ DENC   =    -21135.99032751
  -exchange      EXHF   =         0.00000000
  -V(xc)+E(xc)   XCENC  =      -419.87705816
  PAW double counting   =      4235.41334458    -3509.29226066
  entropy T*S    EENTRO =        -0.00497411
  eigenvalues    EBANDS =      -342.67081955
  atomic energy  EATOM  =      4496.35971583
  ---------------------------------------------------
  free energy    TOTEN  =      -147.86353323 eV

  energy without entropy =     -147.85855912  energy(sigma->0) =     -147.86104618


--------------------------------------------------------------------------------------------------------




----------------------------------------- Iteration    1(   6)  ---------------------------------------


    POTLOK:  cpu time    0.11: real time    0.11
    SETDIJ:  cpu time    0.10: real time    0.10
     EDDAV:  cpu time    4.74: real time    4.75
       DOS:  cpu time    0.00: real time    0.00
    CHARGE:  cpu time    0.38: real time    0.38
    MIXING:  cpu time    0.01: real time    0.01
    --------------------------------------------
      LOOP:  cpu time    5.33: real time    5.34

 eigenvalue-minimisations  :  2962
 total energy-change (2. order) : 0.1475219E+02  (-0.8384903E+01)
 number of electron      95.0000001 magnetization 
 augmentation part        5.5811091 magnetization 

 Broyden mixing:
  rms(total) = 0.74392E+00    rms(broyden)= 0.74296E+00
  rms(prec ) = 0.75083E+00
  weight for this iteration     100.00

 eigenvalues of (default mixing * dielectric matrix)
  average eigenvalue GAMMA=   0.8379
  0.8379

 Free energy of the ion-electron system (eV)
  ---------------------------------------------------
  alpha Z        PSCENC =       119.91480215
  Ewald energy   TEWEN  =     16408.28404421
  -Hartree energ DENC   =    -21308.51769372
  -exchange      EXHF   =         0.00000000
  -V(xc)+E(xc)   XCENC  =      -407.71622913
  PAW double counting   =      5005.80665533    -4282.79643855
  entropy T*S    EENTRO =        -0.00529773
  eigenvalues    EBANDS =      -164.44090576
  atomic energy  EATOM  =      4496.35971583
  ---------------------------------------------------
  free energy    TOTEN  =      -133.11134738 eV

  energy without entropy =     -133.10604965  energy(sigma->0) =     -133.10869852


--------------------------------------------------------------------------------------------------------




----------------------------------------- Iteration    1(   7)  ---------------------------------------


    POTLOK:  cpu time    0.10: real time    0.10
    SETDIJ:  cpu time    0.10: real time    0.10
     EDDAV:  cpu time    4.63: real time    4.63
       DOS:  cpu time    0.00: real time    0.00
    CHARGE:  cpu time    0.38: real time    0.39
    MIXING:  cpu time    0.01: real time    0.01
    --------------------------------------------
      LOOP:  cpu time    5.22: real time    5.23

 eigenvalue-minimisations  :  2874
 total energy-change (2. order) : 0.1573076E+00  (-0.1428618E+00)
 number of electron      95.0000001 magnetization 
 augmentation part        5.6293033 magnetization 

 Broyden mixing:
  rms(total) = 0.44920E+00    rms(broyden)= 0.44919E+00
  rms(prec ) = 0.45391E+00
  weight for this iteration     100.00

 eigenvalues of (default mixing * dielectric matrix)
  average eigenvalue GAMMA=   1.6513
  0.9664  2.3362

 Free energy of the ion-electron system (eV)
  ---------------------------------------------------
  alpha Z        PSCENC =       119.91480215
  Ewald energy   TEWEN  =     16408.28404421
  -Hartree energ DENC   =    -21305.81779773
  -exchange      EXHF   =         0.00000000
  -V(xc)+E(xc)   XCENC  =      -407.41261751
  PAW double counting   =      5265.78824456    -4542.33410163
  entropy T*S    EENTRO =        -0.00385518
  eigenvalues    EBANDS =      -167.73247451
  atomic energy  EATOM  =      4496.35971583
  ---------------------------------------------------
  free energy    TOTEN  =      -132.95403983 eV

  energy without entropy =     -132.95018464  energy(sigma->0) =     -132.95211223


--------------------------------------------------------------------------------------------------------




----------------------------------------- Iteration    1(   8)  ---------------------------------------


    POTLOK:  cpu time    0.10: real time    0.10
    SETDIJ:  cpu time    0.10: real time    0.10
     EDDAV:  cpu time    4.93: real time    4.94
       DOS:  cpu time    0.00: real time    0.00
    CHARGE:  cpu time    0.39: real time    0.39
    MIXING:  cpu time    0.00: real time    0.00
    --------------------------------------------
      LOOP:  cpu time    5.52: real time    5.53

 eigenvalue-minimisations  :  3048
 total energy-change (2. order) : 0.9572398E-01  (-0.4400495E-01)
 number of electron      95.0000001 magnetization 
 augmentation part        5.6677712 magnetization 

 Broyden mixing:
  rms(total) = 0.73247E-01    rms(broyden)= 0.73207E-01
  rms(prec ) = 0.86476E-01
  weight for this iteration     100.00

 eigenvalues of (default mixing * dielectric matrix)
  average eigenvalue GAMMA=   1.3845
  2.4369  0.9070  0.8098

 Free energy of the ion-electron system (eV)
  ---------------------------------------------------
  alpha Z        PSCENC =       119.91480215
  Ewald energy   TEWEN  =     16408.28404421
  -Hartree energ DENC   =    -21312.05601478
  -exchange      EXHF   =         0.00000000
  -V(xc)+E(xc)   XCENC  =      -405.95460095
  PAW double counting   =      5729.94868211    -5006.18236474
  entropy T*S    EENTRO =        -0.00376103
  eigenvalues    EBANDS =      -163.16881863
  atomic energy  EATOM  =      4496.35971583
  ---------------------------------------------------
  free energy    TOTEN  =      -132.85831585 eV

  energy without entropy =     -132.85455481  energy(sigma->0) =     -132.85643533


--------------------------------------------------------------------------------------------------------




----------------------------------------- Iteration    1(   9)  ---------------------------------------


    POTLOK:  cpu time    0.10: real time    0.10
    SETDIJ:  cpu time    0.12: real time    0.12
     EDDAV:  cpu time    4.80: real time    4.81
       DOS:  cpu time    0.00: real time    0.00
    CHARGE:  cpu time    0.38: real time    0.38
    MIXING:  cpu time    0.00: real time    0.00
    --------------------------------------------
      LOOP:  cpu time    5.41: real time    5.42

 eigenvalue-minimisations  :  2954
 total energy-change (2. order) : 0.1659459E-01  (-0.6912760E-02)
 number of electron      95.0000001 magnetization 
 augmentation part        5.6507069 magnetization 

 Broyden mixing:
  rms(total) = 0.42677E-01    rms(broyden)= 0.42676E-01
  rms(prec ) = 0.43398E-01
  weight for this iteration     100.00

 eigenvalues of (default mixing * dielectric matrix)
  average eigenvalue GAMMA=   1.4866
  2.4976  0.9115  0.9115  1.6258

 Free energy of the ion-electron system (eV)
  ---------------------------------------------------
  alpha Z        PSCENC =       119.91480215
  Ewald energy   TEWEN  =     16408.28404421
  -Hartree energ DENC   =    -21315.23178040
  -exchange      EXHF   =         0.00000000
  -V(xc)+E(xc)   XCENC  =      -405.64114920
  PAW double counting   =      5748.00735515    -5024.27689837
  entropy T*S    EENTRO =        -0.00352042
  eigenvalues    EBANDS =      -160.25429020
  atomic energy  EATOM  =      4496.35971583
  ---------------------------------------------------
  free energy    TOTEN  =      -132.84172126 eV

  energy without entropy =     -132.83820084  energy(sigma->0) =     -132.83996105


--------------------------------------------------------------------------------------------------------




----------------------------------------- Iteration    1(  10)  ---------------------------------------


    POTLOK:  cpu time    0.10: real time    0.10
    SETDIJ:  cpu time    0.10: real time    0.10
     EDDAV:  cpu time    4.79: real time    4.80
       DOS:  cpu time    0.00: real time    0.00
    CHARGE:  cpu time    0.38: real time    0.38
    MIXING:  cpu time    0.00: real time    0.00
    --------------------------------------------
      LOOP:  cpu time    5.39: real time    5.39

 eigenvalue-minimisations  :  2960
 total energy-change (2. order) :-0.9946607E-03  (-0.3725174E-02)
 number of electron      95.0000001 magnetization 
 augmentation part        5.6332949 magnetization 

 Broyden mixing:
  rms(total) = 0.26364E-01    rms(broyden)= 0.26347E-01
  rms(prec ) = 0.26780E-01
  weight for this iteration     100.00

 eigenvalues of (default mixing * dielectric matrix)
  average eigenvalue GAMMA=   1.2976
  2.5139  1.7635  0.8916  0.8916  0.4274

 Free energy of the ion-electron system (eV)
  ---------------------------------------------------
  alpha Z        PSCENC =       119.91480215
  Ewald energy   TEWEN  =     16408.28404421
  -Hartree energ DENC   =    -21316.97004322
  -exchange      EXHF   =         0.00000000
  -V(xc)+E(xc)   XCENC  =      -405.45799680
  PAW double counting   =      5730.58673083    -5006.88955464
  entropy T*S    EENTRO =        -0.00356423
  eigenvalues    EBANDS =      -158.66685004
  atomic energy  EATOM  =      4496.35971583
  ---------------------------------------------------
  free energy    TOTEN  =      -132.84271592 eV

  energy without entropy =     -132.83915169  energy(sigma->0) =     -132.84093380


--------------------------------------------------------------------------------------------------------




----------------------------------------- Iteration    1(  11)  ---------------------------------------


    POTLOK:  cpu time    0.10: real time    0.10
    SETDIJ:  cpu time    0.11: real time    0.11
     EDDAV:  cpu time    4.90: real time    4.91
       DOS:  cpu time    0.00: real time    0.00
    CHARGE:  cpu time    0.38: real time    0.38
    MIXING:  cpu time    0.00: real time    0.00
    --------------------------------------------
      LOOP:  cpu time    5.50: real time    5.51

 eigenvalue-minimisations  :  3082
 total energy-change (2. order) : 0.1907326E-03  (-0.2993559E-03)
 number of electron      95.0000001 magnetization 
 augmentation part        5.6377180 magnetization 

 Broyden mixing:
  rms(total) = 0.16376E-01    rms(broyden)= 0.16376E-01
  rms(prec ) = 0.16630E-01
  weight for this iteration     100.00

 eigenvalues of (default mixing * dielectric matrix)
  average eigenvalue GAMMA=   1.4473
  2.7963  2.3023  0.9429  0.9429  1.0034  0.6961

 Free energy of the ion-electron system (eV)
  ---------------------------------------------------
  alpha Z        PSCENC =       119.91480215
  Ewald energy   TEWEN  =     16408.28404421
  -Hartree energ DENC   =    -21316.53739357
  -exchange      EXHF   =         0.00000000
  -V(xc)+E(xc)   XCENC  =      -405.45918981
  PAW double counting   =      5714.89513836    -4991.19541683
  entropy T*S    EENTRO =        -0.00355048
  eigenvalues    EBANDS =      -159.10067504
  atomic energy  EATOM  =      4496.35971583
  ---------------------------------------------------
  free energy    TOTEN  =      -132.84252518 eV

  energy without entropy =     -132.83897470  energy(sigma->0) =     -132.84074994


--------------------------------------------------------------------------------------------------------




----------------------------------------- Iteration    1(  12)  ---------------------------------------


    POTLOK:  cpu time    0.10: real time    0.10
    SETDIJ:  cpu time    0.10: real time    0.10
     EDDAV:  cpu time    5.23: real time    5.24
       DOS:  cpu time    0.00: real time    0.00
    CHARGE:  cpu time    0.40: real time    0.40
    MIXING:  cpu time    0.01: real time    0.01
    --------------------------------------------
      LOOP:  cpu time    5.85: real time    5.85

 eigenvalue-minimisations  :  3396
 total energy-change (2. order) :-0.1578280E-03  (-0.3485922E-03)
 number of electron      95.0000001 magnetization 
 augmentation part        5.6378901 magnetization 

 Broyden mixing:
  rms(total) = 0.64154E-02    rms(broyden)= 0.64084E-02
  rms(prec ) = 0.66097E-02
  weight for this iteration     100.00

 eigenvalues of (default mixing * dielectric matrix)
  average eigenvalue GAMMA=   1.3906
  2.9412  2.4813  0.9104  0.9104  0.9182  0.9182  0.6544

 Free energy of the ion-electron system (eV)
  ---------------------------------------------------
  alpha Z        PSCENC =       119.91480215
  Ewald energy   TEWEN  =     16408.28404421
  -Hartree energ DENC   =    -21316.51517839
  -exchange      EXHF   =         0.00000000
  -V(xc)+E(xc)   XCENC  =      -405.41700607
  PAW double counting   =      5690.16092069    -4966.47601390
  entropy T*S    EENTRO =        -0.00354627
  eigenvalues    EBANDS =      -159.15042126
  atomic energy  EATOM  =      4496.35971583
  ---------------------------------------------------
  free energy    TOTEN  =      -132.84268301 eV

  energy without entropy =     -132.83913674  energy(sigma->0) =     -132.84090988


--------------------------------------------------------------------------------------------------------




----------------------------------------- Iteration    1(  13)  ---------------------------------------


    POTLOK:  cpu time    0.11: real time    0.11
    SETDIJ:  cpu time    0.12: real time    0.12
     EDDAV:  cpu time    4.75: real time    4.75
       DOS:  cpu time    0.00: real time    0.00
    CHARGE:  cpu time    0.38: real time    0.38
    MIXING:  cpu time    0.00: real time    0.00
    --------------------------------------------
      LOOP:  cpu time    5.37: real time    5.38

 eigenvalue-minimisations  :  2970
 total energy-change (2. order) : 0.2780625E-04  (-0.7468862E-04)
 number of electron      95.0000001 magnetization 
 augmentation part        5.6394759 magnetization 

 Broyden mixing:
  rms(total) = 0.46871E-02    rms(broyden)= 0.46864E-02
  rms(prec ) = 0.48418E-02
  weight for this iteration     100.00

 eigenvalues of (default mixing * dielectric matrix)
  average eigenvalue GAMMA=   1.3558
  2.9462  2.5517  0.9472  0.9472  1.0306  1.0306  0.6964  0.6964

 Free energy of the ion-electron system (eV)
  ---------------------------------------------------
  alpha Z        PSCENC =       119.91480215
  Ewald energy   TEWEN  =     16408.28404421
  -Hartree energ DENC   =    -21316.23084575
  -exchange      EXHF   =         0.00000000
  -V(xc)+E(xc)   XCENC  =      -405.43100069
  PAW double counting   =      5684.13090567    -4960.44425347
  entropy T*S    EENTRO =        -0.00354306
  eigenvalues    EBANDS =      -159.42248008
  atomic energy  EATOM  =      4496.35971583
  ---------------------------------------------------
  free energy    TOTEN  =      -132.84265521 eV

  energy without entropy =     -132.83911215  energy(sigma->0) =     -132.84088368


--------------------------------------------------------------------------------------------------------




----------------------------------------- Iteration    1(  14)  ---------------------------------------


    POTLOK:  cpu time    0.10: real time    0.10
    SETDIJ:  cpu time    0.11: real time    0.11
     EDDAV:  cpu time    4.65: real time    4.65
       DOS:  cpu time    0.00: real time    0.00
    CHARGE:  cpu time    0.38: real time    0.38
    MIXING:  cpu time    0.01: real time    0.01
    --------------------------------------------
      LOOP:  cpu time    5.25: real time    5.26

 eigenvalue-minimisations  :  2940
 total energy-change (2. order) : 0.3411192E-04  (-0.2242217E-04)
 number of electron      95.0000001 magnetization 
 augmentation part        5.6399706 magnetization 

 Broyden mixing:
  rms(total) = 0.18411E-02    rms(broyden)= 0.18396E-02
  rms(prec ) = 0.20113E-02
  weight for this iteration     100.00

 eigenvalues of (default mixing * dielectric matrix)
  average eigenvalue GAMMA=   1.3775
  2.9241  2.4445  1.6042  0.9067  0.9067  0.6742  0.9728  0.9728  0.9915

 Free energy of the ion-electron system (eV)
  ---------------------------------------------------
  alpha Z        PSCENC =       119.91480215
  Ewald energy   TEWEN  =     16408.28404421
  -Hartree energ DENC   =    -21316.11381082
  -exchange      EXHF   =         0.00000000
  -V(xc)+E(xc)   XCENC  =      -405.43657126
  PAW double counting   =      5682.80022501    -4959.11190225
  entropy T*S    EENTRO =        -0.00354069
  eigenvalues    EBANDS =      -159.53558326
  atomic energy  EATOM  =      4496.35971583
  ---------------------------------------------------
  free energy    TOTEN  =      -132.84262109 eV

  energy without entropy =     -132.83908041  energy(sigma->0) =     -132.84085075


--------------------------------------------------------------------------------------------------------




----------------------------------------- Iteration    1(  15)  ---------------------------------------


    POTLOK:  cpu time    0.10: real time    0.11
    SETDIJ:  cpu time    0.11: real time    0.11
     EDDAV:  cpu time    4.63: real time    4.63
       DOS:  cpu time    0.00: real time    0.00
    CHARGE:  cpu time    0.39: real time    0.39
    MIXING:  cpu time    0.01: real time    0.01
    --------------------------------------------
      LOOP:  cpu time    5.24: real time    5.25

 eigenvalue-minimisations  :  2868
 total energy-change (2. order) : 0.1258043E-04  (-0.5595930E-05)
 number of electron      95.0000001 magnetization 
 augmentation part        5.6393858 magnetization 

 Broyden mixing:
  rms(total) = 0.47692E-03    rms(broyden)= 0.47602E-03
  rms(prec ) = 0.85734E-03
  weight for this iteration     100.00

 eigenvalues of (default mixing * dielectric matrix)
  average eigenvalue GAMMA=   1.3827
  2.9179  2.3665  2.3665  0.9204  0.9204  1.0183  1.0183  0.6956  0.8018  0.8018

 Free energy of the ion-electron system (eV)
  ---------------------------------------------------
  alpha Z        PSCENC =       119.91480215
  Ewald energy   TEWEN  =     16408.28404421
  -Hartree energ DENC   =    -21316.13774534
  -exchange      EXHF   =         0.00000000
  -V(xc)+E(xc)   XCENC  =      -405.43190422
  PAW double counting   =      5683.79135846    -4960.10320259
  entropy T*S    EENTRO =        -0.00354005
  eigenvalues    EBANDS =      -159.51613697
  atomic energy  EATOM  =      4496.35971583
  ---------------------------------------------------
  free energy    TOTEN  =      -132.84260851 eV

  energy without entropy =     -132.83906847  energy(sigma->0) =     -132.84083849


--------------------------------------------------------------------------------------------------------




----------------------------------------- Iteration    1(  16)  ---------------------------------------


    POTLOK:  cpu time    0.10: real time    0.10
    SETDIJ:  cpu time    0.10: real time    0.10
     EDDAV:  cpu time    3.27: real time    3.27
       DOS:  cpu time    0.00: real time    0.00
    --------------------------------------------
      LOOP:  cpu time    3.47: real time    3.48

 eigenvalue-minimisations  :  1742
 total energy-change (2. order) : 0.4368035E-05  (-0.7688035E-06)
 number of electron      95.0000001 magnetization 
 augmentation part        5.6393858 magnetization 

 Free energy of the ion-electron system (eV)
  ---------------------------------------------------
  alpha Z        PSCENC =       119.91480215
  Ewald energy   TEWEN  =     16408.28404421
  -Hartree energ DENC   =    -21316.10690559
  -exchange      EXHF   =         0.00000000
  -V(xc)+E(xc)   XCENC  =      -405.43143894
  PAW double counting   =      5683.87078392    -4960.18247112
  entropy T*S    EENTRO =        -0.00354048
  eigenvalues    EBANDS =      -159.54759411
  atomic energy  EATOM  =      4496.35971583
  ---------------------------------------------------
  free energy    TOTEN  =      -132.84260415 eV

  energy without entropy =     -132.83906367  energy(sigma->0) =     -132.84083391


--------------------------------------------------------------------------------------------------------




 average (electrostatic) potential at core
  the test charge radii are     0.7215  1.0714  1.0406
  (the norm of the test charge is              1.0000)
       1 -70.3245       2 -70.3187       3 -70.3119       4 -70.3021       5 -70.3000
       6 -70.4290       7 -70.4367       8 -70.3161       9 -70.2971      10 -36.1600
      11 -35.9386      12 -35.9210      13 -36.1581      14 -35.9412      15 -35.9316
      16 -35.9500      17 -35.9675      18 -35.9388      19 -35.9185      20 -74.5988
      21 -74.6172      22 -74.5870      23 -74.5234      24 -74.6165      25 -74.5231
      26 -74.5866
 
 
 
 E-fermi :   6.2333     XC(G=0): -10.1615     alpha+bet :-12.1653


 k-point     1 :       0.0000    0.0000    0.0000
  band No.  band energies     occupation 
      1     -14.5862      2.00000
      2     -14.5230      2.00000
      3     -14.4218      2.00000
      4     -14.2828      2.00000
      5     -14.1178      2.00000
      6     -13.9399      2.00000
      7     -13.7699      2.00000
      8     -13.6254      2.00000
      9     -13.5279      2.00000
     10      -3.9059      2.00000
     11      -3.5252      2.00000
     12      -2.9910      2.00000
     13      -2.2986      2.00000
     14      -2.0323      2.00000
     15      -1.8853      2.00000
     16      -1.5456      2.00000
     17      -1.4545      2.00000
     18      -1.0285      2.00000
     19      -0.6580      2.00000
     20      -0.1912      2.00000
     21       0.0658      2.00000
     22       0.8094      2.00000
     23       0.9562      2.00000
     24       1.5629      2.00000
     25       1.9642      2.00000
     26       1.9642      2.00000
     27       1.9843      2.00000
     28       1.9984      2.00000
     29       1.9984      2.00000
     30       2.0488      2.00000
     31       2.0488      2.00000
     32       2.1203      2.00000
     33       2.1203      2.00000
     34       2.2044      2.00000
     35       2.2044      2.00000
     36       2.2948      2.00000
     37       2.2948      2.00000
     38       2.3616      2.00000
     39       2.3793      2.00000
     40       2.3793      2.00000
     41       2.4500      2.00000
     42       2.4500      2.00000
     43       2.4988      2.00000
     44       2.4988      2.00000
     45       3.3220      2.00000
     46       4.3236      2.00000
     47       5.5051      2.00000
     48       6.7493      0.00000
     49       6.9455      0.00000
     50       7.6396      0.00000
     51       7.8564      0.00000
     52       8.6809      0.00000
     53       8.7906      0.00000
     54       9.5976      0.00000
     55       9.6219      0.00000
     56      10.0956      0.00000
     57      10.1761      0.00000
     58      10.3233      0.00000
     59      11.3607      0.00000
     60      12.9207      0.00000
     61      14.1559      0.00000
     62      14.1872      0.00000

 k-point     2 :       0.0769    0.0000    0.0000
  band No.  band energies     occupation 
      1     -14.5334      2.00000
      2     -14.4717      2.00000
      3     -14.3731      2.00000
      4     -14.2375      2.00000
      5     -14.0767      2.00000
      6     -13.9035      2.00000
      7     -13.7381      2.00000
      8     -13.5977      2.00000
      9     -13.5031      2.00000
     10      -3.7757      2.00000
     11      -3.3952      2.00000
     12      -2.8615      2.00000
     13      -2.1721      2.00000
     14      -1.9502      2.00000
     15      -1.8055      2.00000
     16      -1.4788      2.00000
     17      -1.3451      2.00000
     18      -0.9695      2.00000
     19      -0.6101      2.00000
     20      -0.1029      2.00000
     21       0.0620      2.00000
     22       0.7554      2.00000
     23       1.0196      2.00000
     24       1.4735      2.00000
     25       1.7331      2.00000
     26       1.7717      2.00000
     27       1.7996      2.00000
     28       1.8525      2.00000
     29       1.9202      2.00000
     30       1.9251      2.00000
     31       1.9547      2.00000
     32       2.0056      2.00000
     33       2.0245      2.00000
     34       2.0777      2.00000
     35       2.1012      2.00000
     36       2.1626      2.00000
     37       2.1642      2.00000
     38       2.2401      2.00000
     39       2.2537      2.00000
     40       2.2879      2.00000
     41       2.3390      2.00000
     42       2.4103      2.00000
     43       2.4507      2.00000
     44       2.4595      2.00000
     45       3.4512      2.00000
     46       4.4618      2.00000
     47       5.6603      2.00000
     48       6.9455      0.00000
     49       7.2715      0.00000
     50       7.8773      0.00000
     51       8.0831      0.00000
     52       8.8665      0.00000
     53       9.0027      0.00000
     54       9.8199      0.00000
     55       9.8334      0.00000
     56      10.3593      0.00000
     57      10.4315      0.00000
     58      10.5670      0.00000
     59      11.4738      0.00000
     60      12.9418      0.00000
     61      13.8448      0.00000
     62      14.0804      0.00000

 k-point     3 :       0.1538   -0.0000   -0.0000
  band No.  band energies     occupation 
      1     -14.3820      2.00000
      2     -14.3249      2.00000
      3     -14.2341      2.00000
      4     -14.1088      2.00000
      5     -13.9605      2.00000
      6     -13.8010      2.00000
      7     -13.6494      2.00000
      8     -13.5209      2.00000
      9     -13.4346      2.00000
     10      -3.3857      2.00000
     11      -3.0060      2.00000
     12      -2.4739      2.00000
     13      -1.8040      2.00000
     14      -1.7043      2.00000
     15      -1.5812      2.00000
     16      -1.2947      2.00000
     17      -1.0648      2.00000
     18      -0.7718      2.00000
     19      -0.5361      2.00000
     20      -0.0142      2.00000
     21       0.1506      2.00000
     22       0.5439      2.00000
     23       0.8228      2.00000
     24       1.1211      2.00000
     25       1.1668      2.00000
     26       1.2188      2.00000
     27       1.2905      2.00000
     28       1.3622      2.00000
     29       1.4475      2.00000
     30       1.5964      2.00000
     31       1.6966      2.00000
     32       1.8017      2.00000
     33       1.8368      2.00000
     34       1.8612      2.00000
     35       1.8889      2.00000
     36       1.9625      2.00000
     37       2.0070      2.00000
     38       2.0491      2.00000
     39       2.1255      2.00000
     40       2.1421      2.00000
     41       2.2292      2.00000
     42       2.3021      2.00000
     43       2.3523      2.00000
     44       2.7456      2.00000
     45       3.7886      2.00000
     46       4.8217      2.00000
     47       6.0519      2.00000
     48       7.4051      0.00000
     49       8.0362      0.00000
     50       8.4822      0.00000
     51       8.6421      0.00000
     52       9.3162      0.00000
     53       9.5329      0.00000
     54      10.3396      0.00000
     55      10.3425      0.00000
     56      10.9730      0.00000
     57      11.0375      0.00000
     58      11.2207      0.00000
     59      11.3034      0.00000
     60      11.5177      0.00000
     61      11.9216      0.00000
     62      12.0140      0.00000

 k-point     4 :       0.2308    0.0000   -0.0000
  band No.  band energies     occupation 
      1     -14.1537      2.00000
      2     -14.1043      2.00000
      3     -14.0264      2.00000
      4     -13.9181      2.00000
      5     -13.7900      2.00000
      6     -13.6527      2.00000
      7     -13.5229      2.00000
      8     -13.4134      2.00000
      9     -13.3397      2.00000
     10      -2.7378      2.00000
     11      -2.3594      2.00000
     12      -1.8308      2.00000
     13      -1.3802      2.00000
     14      -1.2690      2.00000
     15      -1.1791      2.00000
     16      -1.0343      2.00000
     17      -0.8755      2.00000
     18      -0.6027      2.00000
     19      -0.4251      2.00000
     20      -0.2090      2.00000
     21      -0.0648      2.00000
     22       0.1295      2.00000
     23       0.3054      2.00000
     24       0.4155      2.00000
     25       0.4559      2.00000
     26       0.6260      2.00000
     27       0.7795      2.00000
     28       0.9568      2.00000
     29       1.1446      2.00000
     30       1.4150      2.00000
     31       1.6421      2.00000
     32       1.6530      2.00000
     33       1.6779      2.00000
     34       1.7312      2.00000
     35       1.8065      2.00000
     36       1.8236      2.00000
     37       1.8950      2.00000
     38       1.9883      2.00000
     39       1.9901      2.00000
     40       2.0792      2.00000
     41       2.1209      2.00000
     42       2.1538      2.00000
     43       2.2051      2.00000
     44       3.2793      2.00000
     45       4.3300      2.00000
     46       5.3697      2.00000
     47       6.6120      0.00000
     48       7.9413      0.00000
     49       8.6813      0.00000
     50       8.9426      0.00000
     51       9.0468      0.00000
     52       9.1789      0.00000
     53       9.4316      0.00000
     54       9.6091      0.00000
     55       9.8396      0.00000
     56      10.1727      0.00000
     57      10.2752      0.00000
     58      10.8380      0.00000
     59      10.9857      0.00000
     60      11.1024      0.00000
     61      11.6478      0.00000
     62      11.7867      0.00000

 k-point     5 :       0.3077   -0.0000   -0.0000
  band No.  band energies     occupation 
      1     -13.8850      2.00000
      2     -13.8462      2.00000
      3     -13.7860      2.00000
      4     -13.7004      2.00000
      5     -13.5994      2.00000
      6     -13.4913      2.00000
      7     -13.3899      2.00000
      8     -13.3047      2.00000
      9     -13.2469      2.00000
     10      -1.8352      2.00000
     11      -1.4595      2.00000
     12      -1.1326      2.00000
     13      -1.0797      2.00000
     14      -1.0308      2.00000
     15      -0.9923      2.00000
     16      -0.9304      2.00000
     17      -0.8938      2.00000
     18      -0.8022      2.00000
     19      -0.6305      2.00000
     20      -0.5422      2.00000
     21      -0.4146      2.00000
     22      -0.3481      2.00000
     23      -0.2141      2.00000
     24      -0.0423      2.00000
     25       0.2582      2.00000
     26       0.6162      2.00000
     27       0.7153      2.00000
     28       1.0181      2.00000
     29       1.3073      2.00000
     30       1.4812      2.00000
     31       1.4814      2.00000
     32       1.5176      2.00000
     33       1.5718      2.00000
     34       1.6422      2.00000
     35       1.6483      2.00000
     36       1.7383      2.00000
     37       1.7660      2.00000
     38       1.8349      2.00000
     39       1.8473      2.00000
     40       1.9256      2.00000
     41       2.0016      2.00000
     42       2.0538      2.00000
     43       2.9190      2.00000
     44       4.0467      2.00000
     45       5.0689      2.00000
     46       5.9931      2.00000
     47       6.3531      0.00070
     48       6.7750      0.00000
     49       7.2610      0.00000
     50       7.4829      0.00000
     51       7.9145      0.00000
     52       8.6639      0.00000
     53       8.8321      0.00000
     54       9.6160      0.00000
     55       9.6876      0.00000
     56       9.8582      0.00000
     57      10.1710      0.00000
     58      10.3425      0.00000
     59      10.8260      0.00000
     60      10.9010      0.00000
     61      11.1228      0.00000
     62      11.6604      0.00000

 k-point     6 :       0.3846    0.0000   -0.0000
  band No.  band energies     occupation 
      1     -13.6261      2.00000
      2     -13.5997      2.00000
      3     -13.5614      2.00000
      4     -13.5026      2.00000
      5     -13.4330      2.00000
      6     -13.3582      2.00000
      7     -13.2885      2.00000
      8     -13.2302      2.00000
      9     -13.1894      2.00000
     10      -1.5715      2.00000
     11      -1.4679      2.00000
     12      -1.3093      2.00000
     13      -1.2704      2.00000
     14      -1.1741      2.00000
     15      -1.1139      2.00000
     16      -1.0321      2.00000
     17      -0.9290      2.00000
     18      -0.9040      2.00000
     19      -0.6820      2.00000
     20      -0.3096      2.00000
     21      -0.2394      2.00000
     22       0.0222      2.00000
     23       0.2169      2.00000
     24       0.3880      2.00000
     25       0.7245      2.00000
     26       0.9354      2.00000
     27       1.0446      2.00000
     28       1.1790      2.00000
     29       1.2540      2.00000
     30       1.3538      2.00000
     31       1.3904      2.00000
     32       1.4452      2.00000
     33       1.4947      2.00000
     34       1.5224      2.00000
     35       1.6132      2.00000
     36       1.7108      2.00000
     37       1.7142      2.00000
     38       1.8019      2.00000
     39       1.8024      2.00000
     40       1.8793      2.00000
     41       1.9320      2.00000
     42       2.8242      2.00000
     43       3.9602      2.00000
     44       4.2053      2.00000
     45       4.5505      2.00000
     46       4.9367      2.00000
     47       5.2712      2.00000
     48       5.8860      2.00000
     49       6.1482      1.98394
     50       6.6750      0.00000
     51       7.1158      0.00000
     52       7.6182      0.00000
     53       8.2654      0.00000
     54       8.7228      0.00000
     55       9.3556      0.00000
     56       9.9442      0.00000
     57      10.0383      0.00000
     58      10.3197      0.00000
     59      10.5035      0.00000
     60      10.9836      0.00000
     61      11.0857      0.00000
     62      11.3634      0.00000

 k-point     7 :       0.4615    0.0000   -0.0000
  band No.  band energies     occupation 
      1     -13.4442      2.00000
      2     -13.4280      2.00000
      3     -13.4111      2.00000
      4     -13.3763      2.00000
      5     -13.3355      2.00000
      6     -13.2905      2.00000
      7     -13.2481      2.00000
      8     -13.2124      2.00000
      9     -13.1847      2.00000
     10      -1.8775      2.00000
     11      -1.7720      2.00000
     12      -1.6111      2.00000
     13      -1.4262      2.00000
     14      -1.4179      2.00000
     15      -1.3331      2.00000
     16      -1.2730      2.00000
     17      -1.2019      2.00000
     18      -1.1700      2.00000
     19       0.2644      2.00000
     20       0.3980      2.00000
     21       0.6092      2.00000
     22       0.7162      2.00000
     23       0.8047      2.00000
     24       0.8380      2.00000
     25       0.9952      2.00000
     26       1.0732      2.00000
     27       1.0991      2.00000
     28       1.2839      2.00000
     29       1.3207      2.00000
     30       1.3757      2.00000
     31       1.3968      2.00000
     32       1.4532      2.00000
     33       1.5444      2.00000
     34       1.6134      2.00000
     35       1.6404      2.00000
     36       1.6424      2.00000
     37       1.7344      2.00000
     38       1.8117      2.00000
     39       1.8647      2.00000
     40       2.2840      2.00000
     41       2.3741      2.00000
     42       2.7247      2.00000
     43       3.1119      2.00000
     44       3.2574      2.00000
     45       3.8972      2.00000
     46       4.2150      2.00000
     47       4.7947      2.00000
     48       5.4093      2.00000
     49       5.8106      2.00000
     50       6.3960      0.00000
     51       6.9055      0.00000
     52       7.2368      0.00000
     53       7.8161      0.00000
     54       8.2049      0.00000
     55       8.8320      0.00000
     56       9.5102      0.00000
     57       9.9637      0.00000
     58      10.1802      0.00000
     59      10.5101      0.00000
     60      10.8170      0.00000
     61      11.1194      0.00000
     62      11.2107      0.00000

 k-point     8 :       0.0769    0.0769    0.0000
  band No.  band energies     occupation 
      1     -14.4313      2.00000
      2     -14.3726      2.00000
      3     -14.2792      2.00000
      4     -14.1504      2.00000
      5     -13.9980      2.00000
      6     -13.8341      2.00000
      7     -13.6779      2.00000
      8     -13.5454      2.00000
      9     -13.4564      2.00000
[...]
     57       8.7724      0.00000
     58       9.2718      0.00000
     59       9.7005      0.00000
     60       9.9907      0.00000
     61      10.3683      0.00000
     62      10.7190      0.00000

 k-point    19 :       0.3077    0.2308    0.0000
  band No.  band energies     occupation 
      1     -13.3870      2.00000
      2     -13.3809      2.00000
      3     -13.3545      2.00000
      4     -13.3243      2.00000
      5     -13.2859      2.00000
      6     -13.2462      2.00000
      7     -13.2085      2.00000
      8     -13.1777      2.00000
      9     -13.1510      2.00000
     10      -1.3210      2.00000
     11      -1.2340      2.00000
     12      -1.1013      2.00000
     13      -1.0856      2.00000
     14      -1.0367      2.00000
     15      -0.9776      2.00000
     16      -0.9272      2.00000
     17      -0.7834      2.00000
     18      -0.6291      2.00000
     19      -0.2145      2.00000
     20      -0.0648      2.00000
     21       0.0897      2.00000
     22       0.2630      2.00000
     23       0.3760      2.00000
     24       0.4499      2.00000
     25       0.4780      2.00000
     26       0.5709      2.00000
     27       0.7007      2.00000
     28       0.7881      2.00000
     29       0.8409      2.00000
     30       0.8575      2.00000
     31       0.9849      2.00000
     32       1.1405      2.00000
     33       1.2253      2.00000
     34       1.2477      2.00000
     35       1.3222      2.00000
     36       1.4222      2.00000
     37       1.5123      2.00000
     38       1.6267      2.00000
     39       1.7507      2.00000
     40       2.4482      2.00000
     41       3.2772      2.00000
     42       4.0987      2.00000
     43       4.2556      2.00000
     44       4.4621      2.00000
     45       4.9534      2.00000
     46       5.3645      2.00000
     47       5.6859      2.00000
     48       5.7325      2.00000
     49       6.0151      2.00000
     50       6.3912      0.00002
     51       6.5462      0.00000
     52       6.7634      0.00000
     53       7.2615      0.00000
     54       7.5339      0.00000
     55       7.6067      0.00000
     56       8.1601      0.00000
     57       8.3731      0.00000
     58       8.7382      0.00000
     59       9.1305      0.00000
     60       9.3629      0.00000
     61       9.8726      0.00000
     62      10.1365      0.00000

 k-point    20 :       0.3846    0.2308    0.0000
  band No.  band energies     occupation 
      1     -13.3070      2.00000
      2     -13.3040      2.00000
      3     -13.2791      2.00000
      4     -13.2670      2.00000
      5     -13.2464      2.00000
      6     -13.2247      2.00000
      7     -13.2029      2.00000
      8     -13.1842      2.00000
      9     -13.1656      2.00000
     10      -1.4006      2.00000
     11      -1.3052      2.00000
     12      -1.1491      2.00000
     13      -0.9777      2.00000
     14      -0.9677      2.00000
     15      -0.9453      2.00000
     16      -0.8989      2.00000
     17      -0.8543      2.00000
     18      -0.8460      2.00000
     19      -0.0291      2.00000
     20      -0.0026      2.00000
     21       0.0457      2.00000
     22       0.1043      2.00000
     23       0.1063      2.00000
     24       0.1527      2.00000
     25       0.2875      2.00000
     26       0.4545      2.00000
     27       0.6301      2.00000
     28       0.8794      2.00000
     29       0.9052      2.00000
     30       1.0641      2.00000
     31       1.1223      2.00000
     32       1.1728      2.00000
     33       1.2852      2.00000
     34       1.4117      2.00000
     35       1.4944      2.00000
     36       1.4993      2.00000
     37       2.3572      2.00000
     38       2.3588      2.00000
     39       2.7144      2.00000
     40       2.7337      2.00000
     41       3.2090      2.00000
     42       3.2792      2.00000
     43       3.8687      2.00000
     44       3.9673      2.00000
     45       4.6364      2.00000
     46       4.8957      2.00000
     47       5.5710      2.00000
     48       5.6255      2.00000
     49       5.9159      2.00000
     50       5.9338      2.00000
     51       6.4266      0.00000
     52       6.8690      0.00000
     53       6.8967      0.00000
     54       7.3434      0.00000
     55       7.8953      0.00000
     56       7.9715      0.00000
     57       8.1061      0.00000
     58       8.5553      0.00000
     59       8.9964      0.00000
     60       9.0757      0.00000
     61       9.5538      0.00000
     62      10.1315      0.00000

 k-point    21 :       0.3077    0.3077    0.0000
  band No.  band energies     occupation 
      1     -13.2808      2.00000
      2     -13.2779      2.00000
      3     -13.2484      2.00000
      4     -13.2406      2.00000
      5     -13.2254      2.00000
      6     -13.2103      2.00000
      7     -13.1953      2.00000
      8     -13.1822      2.00000
      9     -13.1681      2.00000
     10      -1.0485      2.00000
     11      -1.0479      2.00000
     12      -0.9690      2.00000
     13      -0.9598      2.00000
     14      -0.8609      2.00000
     15      -0.8124      2.00000
     16      -0.6547      2.00000
     17      -0.6534      2.00000
     18      -0.5482      2.00000
     19      -0.4573      2.00000
     20      -0.3844      2.00000
     21      -0.2590      2.00000
     22      -0.1902      2.00000
     23      -0.1079      2.00000
     24       0.0206      2.00000
     25       0.0348      2.00000
     26       0.1889      2.00000
     27       0.1934      2.00000
     28       0.8860      2.00000
     29       0.9027      2.00000
     30       1.0929      2.00000
     31       1.2092      2.00000
     32       1.2658      2.00000
     33       1.3173      2.00000
     34       1.3201      2.00000
     35       1.3487      2.00000
     36       1.4595      2.00000
     37       2.2337      2.00000
     38       2.6028      2.00000
     39       3.1185      2.00000
     40       3.7798      2.00000
     41       3.8515      2.00000
     42       3.8684      2.00000
     43       4.2062      2.00000
     44       4.2186      2.00000
     45       4.5668      2.00000
     46       4.7161      2.00000
     47       4.7166      2.00000
     48       5.2812      2.00000
     49       5.4697      2.00000
     50       5.6593      2.00000
     51       6.2460      0.84804
     52       6.3369      0.00576
     53       6.9781      0.00000
     54       7.1951      0.00000
     55       7.5374      0.00000
     56       7.8304      0.00000
     57       8.2825      0.00000
     58       8.4928      0.00000
     59       8.5432      0.00000
     60       9.1135      0.00000
     61       9.4113      0.00000
     62       9.6913      0.00000


--------------------------------------------------------------------------------------------------------


 soft charge-density along one line, spin component           1
         0         1         2         3         4         5         6         7         8         9
 total charge-density along one line
 
 pseudopotential strength for first ion, spin component:           1
 12.212   0.000 -14.862   0.000   0.000   0.000  -0.000   0.000  -0.000   0.000  -0.000   0.000   0.000   0.000   0.000   0.000
-14.862   0.000  18.106   0.000  -0.000   0.000   0.000   0.000   0.000   0.000   0.000   0.000  -0.000   0.000  -0.000   0.000
  0.000   0.000  -0.000   0.000  -8.356   0.000  -0.000   0.000   0.000   0.000  10.012   0.000   0.000   0.000  -0.000   0.000
 -0.000   0.000   0.000   0.000  -0.000   0.000  -8.362   0.000   0.000   0.000   0.000   0.000  10.020   0.000  -0.000   0.000
 -0.000   0.000   0.000   0.000   0.000   0.000   0.000   0.000  -8.356   0.000  -0.000   0.000  -0.000   0.000  10.012   0.000
 -0.000   0.000   0.000   0.000  10.012   0.000   0.000   0.000  -0.000   0.000 -11.838   0.000  -0.000   0.000   0.000   0.000
  0.000   0.000  -0.000   0.000   0.000   0.000  10.020   0.000  -0.000   0.000  -0.000   0.000 -11.849   0.000   0.000   0.000
  0.000   0.000  -0.000   0.000  -0.000   0.000  -0.000   0.000  10.012   0.000   0.000   0.000   0.000   0.000 -11.838   0.000
 total augmentation occupancy for first ion, spin component:           1
  2.592   0.358   0.000  -0.000  -0.000   0.000  -0.000   0.000
  0.358   0.067   0.000   0.000  -0.000   0.000  -0.000   0.000
  0.000   0.000   2.153  -0.000   0.000   0.256  -0.000   0.000
 -0.000   0.000  -0.000   2.148   0.000  -0.000   0.261   0.000
 -0.000  -0.000   0.000   0.000   2.153   0.000   0.000   0.256
  0.000   0.000   0.256  -0.000   0.000   0.033  -0.000   0.000
 -0.000  -0.000  -0.000   0.261   0.000  -0.000   0.034  -0.000
  0.000   0.000   0.000   0.000   0.256   0.000  -0.000   0.033


------------------------ aborting loop because EDIFF is reached ----------------------------------------


    CHARGE:  cpu time    0.38: real time    0.38
    FORLOC:  cpu time    0.04: real time    0.04
    FORNL :  cpu time    3.10: real time    3.10
    STRESS:  cpu time    4.17: real time    4.17
    FORCOR:  cpu time    0.14: real time    0.14
    FORHAR:  cpu time    0.06: real time    0.06
    MIXING:  cpu time    0.00: real time    0.00
    OFIELD:  cpu time    0.00: real time    0.00

  FORCE on cell =-STRESS in cart. coord.  units (eV):
  Direction    XX          YY          ZZ          XY          YZ          ZX
  --------------------------------------------------------------------------------------
  Alpha Z   119.91480   119.91480   119.91480
  Ewald   18867.76415 18867.76444-21326.34257    -0.00002    -0.00003    -0.00014
  Hartree 20459.54194 20459.54186-19603.68414    -0.00000    -0.00000     0.00004
  E(xc)    -387.66752  -387.66753  -387.64775    -0.00000     0.00000    -0.00000
  Local  -40461.21845-40461.21797 39794.74596    -0.00016     0.00003     0.00004
  n-local   -26.30618   -38.15914   -30.73442     2.68825    -1.48693     4.76990
  augment    53.36376    53.36354    52.65453     0.00016     0.00000     0.00000
  Kinetic  1399.25923  1352.00155  1364.13461     1.92625    -0.38839     0.67700
  Fock        0.00000     0.00000     0.00000     0.00000     0.00000     0.00000
  -------------------------------------------------------------------------------------
  Total      -4.90337    -4.90337   -16.95899     0.00000     0.00000     0.00000
  in kB     -23.29857   -23.29855   -80.58137     0.00000     0.00000     0.00000
  external pressure =      -42.39 kB  Pullay stress =        0.00 kB


 VOLUME and BASIS-vectors are now :
 -----------------------------------------------------------------------------
  energy-cutoff  :      520.00
  volume of cell :      337.19
      direct lattice vectors                 reciprocal lattice vectors
     2.591982046 -1.496481076  0.000000000     0.385805142 -0.000000000 -0.000000000
     0.000000000  2.992962152  0.000000000     0.192902571  0.334117155  0.000000000
     0.000000000 -0.000000000 43.465301433     0.000000000  0.000000000  0.023006858

  length of vectors
     2.992962836  2.992962152 43.465301433     0.385805142  0.385805230  0.023006858


 FORCES acting on ions
    electron-ion (+dipol)            ewald-force                    non-local-force                 convergence-correction
 -----------------------------------------------------------------------------------------------
   -.577E-08 -.486E-08 0.105E+04   -.758E-07 0.922E-07 -.105E+04   -.375E-19 -.240E-18 0.611E-01   0.176E-09 -.338E-09 0.268E-01
   0.106E-02 -.184E-02 0.700E+03   0.551E-04 -.955E-04 -.700E+03   0.248E-21 -.219E-19 -.251E-02   -.326E-08 0.564E-08 0.387E-01
   -.244E-09 0.553E-10 -.550E-01   -.883E-08 0.999E-08 0.309E-01   -.647E-22 0.351E-20 -.253E-02   0.119E-09 -.614E-10 0.262E-01
   0.106E-02 -.184E-02 -.350E+03   0.551E-04 -.954E-04 0.350E+03   -.254E-19 0.318E-19 0.534E-02   0.179E-08 -.290E-08 0.725E-03
   0.768E-08 0.450E-08 -.105E+04   0.105E-06 -.125E-06 0.105E+04   -.315E-18 0.227E-19 -.592E-01   -.142E-10 0.301E-10 -.460E-01
   0.107E-02 -.185E-02 -.139E+04   0.503E-04 -.835E-04 0.140E+04   -.424E-17 0.740E-17 -.119E+01   -.366E-08 0.612E-08 -.599E-01
   -.107E-02 0.185E-02 0.140E+04   -.503E-04 0.836E-04 -.140E+04   0.424E-17 -.740E-17 0.120E+01   0.593E-09 -.102E-08 0.294E-01
   -.106E-02 0.184E-02 0.350E+03   -.551E-04 0.954E-04 -.350E+03   0.540E-20 0.176E-19 -.106E-01   -.343E-08 0.602E-08 0.448E-01
   -.106E-02 0.184E-02 -.700E+03   -.551E-04 0.955E-04 0.700E+03   0.127E-19 -.201E-19 0.829E-02   0.123E-07 -.212E-07 -.304E-01
   -.964E-05 0.261E-05 0.505E+03   0.232E-04 -.245E-04 -.505E+03   -.294E-17 0.586E-20 -.153E-01   -.204E-10 0.525E-10 0.759E-02
   -.206E-10 0.826E-08 0.175E+03   -.115E-08 0.144E-08 -.175E+03   0.549E-20 0.138E-19 -.740E-03   -.639E-10 0.546E-10 0.137E-01
   -.384E-08 -.396E-08 -.175E+03   0.590E-08 -.670E-08 0.175E+03   -.690E-21 -.487E-22 0.127E-03   0.161E-09 -.246E-09 -.192E-02
   0.963E-05 -.261E-05 -.505E+03   -.232E-04 0.245E-04 0.505E+03   -.400E-17 0.139E-16 0.151E-01   -.142E-09 0.277E-09 -.228E-01
   0.423E-04 -.733E-04 0.292E+03   -.474E-04 0.822E-04 -.292E+03   0.243E-19 -.214E-18 -.823E-02   0.185E-10 0.483E-10 0.109E-01
   0.423E-04 -.733E-04 -.583E+02   -.474E-04 0.822E-04 0.583E+02   0.458E-19 -.260E-19 -.277E-02   0.979E-11 -.457E-10 0.766E-02
   0.424E-04 -.733E-04 -.408E+03   -.474E-04 0.820E-04 0.408E+03   0.124E-18 0.171E-17 0.690E-01   0.355E-09 -.571E-09 -.206E-01
   -.424E-04 0.733E-04 0.409E+03   0.474E-04 -.820E-04 -.408E+03   0.300E-18 0.349E-17 -.635E-01   -.814E-10 0.926E-10 0.947E-02
   -.423E-04 0.733E-04 0.583E+02   0.474E-04 -.822E-04 -.583E+02   0.978E-23 -.351E-20 -.102E-03   -.432E-10 0.299E-10 0.131E-01
   -.423E-04 0.733E-04 -.292E+03   0.474E-04 -.822E-04 0.292E+03   -.542E-19 -.370E-20 0.966E-02   -.258E-09 0.371E-09 -.128E-01
   -.334E-09 0.483E-09 -.309E-01   -.559E-10 0.551E-10 0.265E-01   -.635E-21 0.102E-19 -.756E-04   0.368E-12 -.416E-13 0.460E-02
   -.400E-06 -.233E-07 0.492E+03   0.148E-05 -.133E-05 -.492E+03   -.440E-17 0.139E-16 -.160E+00   0.870E-12 -.100E-11 0.840E-02
   0.148E-04 -.257E-04 0.319E+03   -.243E-05 0.440E-05 -.320E+03   -.437E-18 0.276E-16 0.286E+00   0.106E-10 -.997E-11 0.794E-02
   -.147E-04 0.255E-04 0.159E+03   0.272E-05 -.468E-05 -.159E+03   0.422E-19 -.903E-18 0.933E-01   -.483E-11 0.839E-11 0.710E-02
   0.401E-06 0.221E-07 -.492E+03   -.148E-05 0.133E-05 0.492E+03   0.245E-16 -.627E-19 0.164E+00   0.159E-11 0.204E-11 -.212E-01
   0.147E-04 -.255E-04 -.159E+03   -.271E-05 0.468E-05 0.159E+03   0.824E-18 0.358E-19 -.934E-01   0.140E-10 -.211E-10 0.469E-03
   -.148E-04 0.257E-04 -.320E+03   0.243E-05 -.439E-05 0.320E+03   0.439E-18 0.109E-18 -.285E+00   -.217E-10 0.435E-10 -.863E-02
 -----------------------------------------------------------------------------------------------
   0.344E-08 0.106E-07 -.461E-01   -.508E-13 0.302E-13 0.853E-12   0.141E-16 0.594E-16 0.152E-01   0.450E-08 -.764E-08 0.333E-01
 
 
 POSITION                                       TOTAL-FORCE (eV/Angst)
 -----------------------------------------------------------------------------------
      0.00000     -0.00000     15.30599         0.000000     -0.000000      0.003960
      0.86399      1.49648     17.82200        -0.000000      0.000000     -0.002443
      0.00000     -0.00000     22.85347         0.000000     -0.000000     -0.000560
      0.86399      1.49648     25.36956        -0.000000      0.000000      0.001071
      0.00000     -0.00000     30.40170         0.000000     -0.000000     -0.005089
      0.86399      1.49648     32.91794         0.000000      0.000000     -0.008861
      1.72799     -0.00000     12.78973        -0.000000      0.000000      0.011392
      1.72799     -0.00000     20.33745        -0.000000      0.000000     -0.002502
      1.72799     -0.00000     27.88522        -0.000000      0.000000      0.003777
      0.00000     -0.00000     11.49593         0.000000     -0.000000      0.000686
      0.00000     -0.00000     19.07970         0.000000     -0.000000      0.007216
      0.00000     -0.00000     26.62746         0.000000     -0.000000     -0.005708
      0.00000     -0.00000     34.21158         0.000000     -0.000000     -0.004037
      1.72799     -0.00000     16.56471         0.000000     -0.000000      0.000966
      1.72799     -0.00000     24.11175         0.000000     -0.000000     -0.003978
      1.72799     -0.00000     31.65805         0.000000     -0.000000      0.004744
      0.86399      1.49648     14.04920         0.000000     -0.000000     -0.002870
      0.86399      1.49648     21.59540         0.000000     -0.000000      0.005944
      0.86399      1.49648     29.14267         0.000000     -0.000000     -0.003195
      0.00000     -0.00000      1.12078         0.000000     -0.000000     -0.000000
      0.00000     -0.00000      8.44933         0.000000     -0.000000      0.003980
      1.72799     -0.00000      5.95599         0.000000     -0.000000      0.004844
      0.86399      1.49648      3.53364         0.000000     -0.000000      0.000295
      0.00000     -0.00000     37.25729         0.000000     -0.000000     -0.003706
      1.72799     -0.00000     42.17320         0.000000     -0.000000     -0.000941
      0.86399      1.49648     39.75068         0.000000     -0.000000     -0.004984
 -----------------------------------------------------------------------------------
    total drift:                                0.000000      0.000000      0.002339


--------------------------------------------------------------------------------------------------------



  FREE ENERGIE OF THE ION-ELECTRON SYSTEM (eV)
  ---------------------------------------------------
  free  energy   TOTEN  =      -132.84262893 eV

  energy  without entropy=     -132.83908815  energy(sigma->0) =     -132.84085854
 
 d Force = 0.4114417E-04[-0.672E-05, 0.890E-04]  d Energy = 0.2478011E-04 0.164E-04
 d Force =-0.9103480E+00[-0.910E+00,-0.910E+00]  d Ewald  =-0.9103480E+00-0.402E-08


--------------------------------------------------------------------------------------------------------


    POTLOK:  cpu time    0.20: real time    0.20


--------------------------------------------------------------------------------------------------------


 Steepest descent step on ions:
 trial-energy change:   -0.000025  1 .order   -0.000041   -0.000089    0.000007
  (g-gl).g = 0.890E-04      g.g   = 0.890E-04  gl.gl    = 0.000E+00
 g(Force)  = 0.890E-04   g(Stress)= 0.000E+00 ortho     = 0.000E+00
 gamma     =   0.00000
 trial     =   1.00000
 opt step  =   0.92978  (harmonic =   0.92978) maximal distance =0.00056412
 next E    =  -132.842646   (d E  =  -0.00004)


--------------------------------------------------------------------------------------------------------


  
 reached required accuracy - stopping structural energy minimisation
     LOOP+:  cpu time   34.96: real time   35.00
    4ORBIT:  cpu time    0.00: real time    0.00

 total amount of memory used by VASP on root node   149084. kBytes
========================================================================

   base      :      30000. kBytes
   nonl-proj :      16040. kBytes
   fftplans  :      55867. kBytes
   grid      :      22394. kBytes
   one-center:         56. kBytes
   wavefun   :      24727. kBytes
 
  
  
 General timing and accounting informations for this job:
 ========================================================
  
                  Total CPU time used (sec):      132.696
                            User time (sec):      130.835
                          System time (sec):        1.862
                         Elapsed time (sec):      132.897
  
                   Maximum memory used (kb):      250876.
                   Average memory used (kb):           0.
  
                          Minor page faults:       105514
                          Major page faults:            0
                 Voluntary context switches:           54
