  21  21   0   0
  0.3020841E+02  0.2985060E-09  0.2985054E-09  0.8220741E-08  0.5000000E-15
  1.000000000000000E-004
  CAR 
 unknown system                          
      8.22305779    -22.95926864  301     -1.05205779      1.00000000
    -22.959  0.0000E+00  0.0000E+00
    -22.855  0.0000E+00  0.0000E+00
    -22.751  0.0000E+00  0.0000E+00
    -22.647  0.0000E+00  0.0000E+00
    -22.544  0.0000E+00  0.0000E+00
    -22.440  0.0000E+00  0.0000E+00
    -22.336  0.0000E+00  0.0000E+00
    -22.232  0.0000E+00  0.0000E+00
    -22.128  0.0000E+00  0.0000E+00
    -22.024  0.0000E+00  0.0000E+00
    -21.920  0.0000E+00  0.0000E+00
    -21.816  0.5183E-15  0.5387E-16
    -21.712  0.8568E-07  0.8905E-08
    -21.608  0.3726E-02  0.3873E-03
    -21.504  0.3490E+00  0.3667E-01
    -21.400  0.1377E+01  0.1798E+00
    -21.296  0.2585E+01  0.4484E+00
    -21.192  0.2950E+01  0.7551E+00
    -21.088  0.4239E+01  0.1196E+01
    -20.984  0.4357E+01  0.1649E+01
    -20.880  0.6596E+01  0.2334E+01
    -20.777  0.6891E+01  0.3050E+01
    -20.673  0.8305E+01  0.3914E+01
    -20.569  0.1109E+02  0.5067E+01
    -20.465  0.1311E+02  0.6429E+01
    -20.361  0.1930E+02  0.8436E+01
    -20.257  0.2749E+02  0.1129E+02
    -20.153  0.3370E+02  0.1480E+02
    -20.049  0.3646E+02  0.1859E+02
    -19.945  0.1348E+02  0.1999E+02
    -19.841  0.1322E+00  0.2000E+02
    -19.737  0.2025E-05  0.2000E+02
    -19.633  0.1145E-13  0.2000E+02
    -19.529  0.0000E+00  0.2000E+02
    -19.425  0.0000E+00  0.2000E+02
    -19.321  0.0000E+00  0.2000E+02
    -19.217  0.0000E+00  0.2000E+02
    -19.113  0.0000E+00  0.2000E+02
    -19.010  0.0000E+00  0.2000E+02
    -18.906  0.0000E+00  0.2000E+02
    -18.802  0.0000E+00  0.2000E+02
    -18.698  0.0000E+00  0.2000E+02
    -18.594  0.0000E+00  0.2000E+02
    -18.490  0.0000E+00  0.2000E+02
    -18.386  0.0000E+00  0.2000E+02
    -18.282  0.0000E+00  0.2000E+02
    -18.178  0.0000E+00  0.2000E+02
    -18.074  0.0000E+00  0.2000E+02
    -17.970  0.0000E+00  0.2000E+02
    -17.866  0.0000E+00  0.2000E+02
    -17.762  0.0000E+00  0.2000E+02
    -17.658  0.0000E+00  0.2000E+02
    -17.554  0.0000E+00  0.2000E+02
    -17.450  0.0000E+00  0.2000E+02
    -17.346  0.0000E+00  0.2000E+02
    -17.243  0.0000E+00  0.2000E+02
    -17.139  0.0000E+00  0.2000E+02
    -17.035  0.0000E+00  0.2000E+02
    -16.931  0.0000E+00  0.2000E+02
    -16.827  0.0000E+00  0.2000E+02
    -16.723  0.0000E+00  0.2000E+02
    -16.619  0.0000E+00  0.2000E+02
    -16.515  0.0000E+00  0.2000E+02
    -16.411  0.0000E+00  0.2000E+02
    -16.307  0.0000E+00  0.2000E+02
    -16.203  0.0000E+00  0.2000E+02
    -16.099  0.0000E+00  0.2000E+02
    -15.995  0.0000E+00  0.2000E+02
    -15.891  0.0000E+00  0.2000E+02
    -15.787  0.0000E+00  0.2000E+02
    -15.683  0.0000E+00  0.2000E+02
    -15.579  0.0000E+00  0.2000E+02
    -15.476  0.0000E+00  0.2000E+02
    -15.372  0.0000E+00  0.2000E+02
    -15.268  0.0000E+00  0.2000E+02
    -15.164  0.0000E+00  0.2000E+02
    -15.060  0.0000E+00  0.2000E+02
    -14.956  0.0000E+00  0.2000E+02
    -14.852  0.0000E+00  0.2000E+02
    -14.748  0.0000E+00  0.2000E+02
    -14.644  0.0000E+00  0.2000E+02
    -14.540  0.0000E+00  0.2000E+02
    -14.436  0.0000E+00  0.2000E+02
    -14.332  0.0000E+00  0.2000E+02
    -14.228  0.0000E+00  0.2000E+02
    -14.124  0.0000E+00  0.2000E+02
    -14.020  0.0000E+00  0.2000E+02
    -13.916  0.0000E+00  0.2000E+02
    -13.812  0.0000E+00  0.2000E+02
    -13.709  0.0000E+00  0.2000E+02
    -13.605  0.0000E+00  0.2000E+02
    -13.501  0.0000E+00  0.2000E+02
    -13.397  0.0000E+00  0.2000E+02
    -13.293  0.0000E+00  0.2000E+02
    -13.189  0.0000E+00  0.2000E+02
    -13.085  0.0000E+00  0.2000E+02
    -12.981  0.0000E+00  0.2000E+02
    -12.877  0.0000E+00  0.2000E+02
    -12.773  0.0000E+00  0.2000E+02
    -12.669  0.0000E+00  0.2000E+02
    -12.565  0.0000E+00  0.2000E+02
    -12.461  0.0000E+00  0.2000E+02
    -12.357  0.0000E+00  0.2000E+02
    -12.253  0.0000E+00  0.2000E+02
    -12.149  0.0000E+00  0.2000E+02
    -12.045  0.0000E+00  0.2000E+02
    -11.942  0.0000E+00  0.2000E+02
    -11.838  0.0000E+00  0.2000E+02
    -11.734  0.0000E+00  0.2000E+02
    -11.630  0.0000E+00  0.2000E+02
    -11.526  0.0000E+00  0.2000E+02
    -11.422  0.0000E+00  0.2000E+02
    -11.318  0.0000E+00  0.2000E+02
    -11.214  0.0000E+00  0.2000E+02
    -11.110  0.0000E+00  0.2000E+02
    -11.006  0.0000E+00  0.2000E+02
    -10.902  0.0000E+00  0.2000E+02
    -10.798  0.0000E+00  0.2000E+02
    -10.694  0.0000E+00  0.2000E+02
    -10.590  0.0000E+00  0.2000E+02
    -10.486  0.0000E+00  0.2000E+02
    -10.382  0.0000E+00  0.2000E+02
    -10.278  0.0000E+00  0.2000E+02
    -10.175  0.0000E+00  0.2000E+02
    -10.071  0.0000E+00  0.2000E+02
     -9.967  0.0000E+00  0.2000E+02
     -9.863  0.0000E+00  0.2000E+02
     -9.759  0.0000E+00  0.2000E+02
     -9.655  0.0000E+00  0.2000E+02
     -9.551  0.0000E+00  0.2000E+02
     -9.447  0.0000E+00  0.2000E+02
     -9.343  0.0000E+00  0.2000E+02
     -9.239  0.0000E+00  0.2000E+02
     -9.135  0.1694E-11  0.2000E+02
     -9.031  0.1193E-04  0.2000E+02
     -8.927  0.3223E-01  0.2000E+02
     -8.823  0.1210E+01  0.2013E+02
     -8.719  0.2105E+01  0.2035E+02
     -8.615  0.3987E+01  0.2076E+02
     -8.511  0.5417E+01  0.2133E+02
     -8.408  0.4886E+01  0.2183E+02
     -8.304  0.8348E+01  0.2270E+02
     -8.200  0.1419E+02  0.2418E+02
     -8.096  0.1409E+02  0.2564E+02
     -7.992  0.2442E+02  0.2818E+02
     -7.888  0.2570E+02  0.3085E+02
     -7.784  0.2181E+02  0.3312E+02
     -7.680  0.1119E+02  0.3428E+02
     -7.576  0.1063E+02  0.3538E+02
     -7.472  0.9711E+01  0.3639E+02
     -7.368  0.5924E+01  0.3701E+02
     -7.264  0.6861E+01  0.3772E+02
     -7.160  0.4931E+01  0.3824E+02
     -7.056  0.7087E+01  0.3897E+02
     -6.952  0.8840E+01  0.3989E+02
     -6.848  0.1024E+02  0.4096E+02
     -6.744  0.7650E+01  0.4175E+02
     -6.641  0.9361E+01  0.4272E+02
     -6.537  0.1048E+02  0.4381E+02
     -6.433  0.8549E+01  0.4470E+02
     -6.329  0.1053E+02  0.4580E+02
     -6.225  0.1260E+02  0.4711E+02
     -6.121  0.1012E+02  0.4816E+02
     -6.017  0.1316E+02  0.4953E+02
     -5.913  0.1584E+02  0.5117E+02
     -5.809  0.1758E+02  0.5300E+02
     -5.705  0.1947E+02  0.5502E+02
     -5.601  0.2329E+02  0.5744E+02
     -5.497  0.2655E+02  0.6020E+02
     -5.393  0.2744E+02  0.6306E+02
     -5.289  0.2517E+02  0.6567E+02
     -5.185  0.2758E+02  0.6854E+02
     -5.081  0.2751E+02  0.7140E+02
     -4.977  0.2539E+02  0.7404E+02
     -4.874  0.1788E+02  0.7589E+02
     -4.770  0.1417E+02  0.7737E+02
     -4.666  0.1120E+02  0.7853E+02
     -4.562  0.7395E+01  0.7930E+02
     -4.458  0.4815E+01  0.7980E+02
     -4.354  0.1735E+01  0.7998E+02
     -4.250  0.1837E+00  0.8000E+02
     -4.146  0.2275E-03  0.8000E+02
     -4.042  0.1728E-09  0.8000E+02
     -3.938  0.0000E+00  0.8000E+02
     -3.834  0.0000E+00  0.8000E+02
     -3.730  0.0000E+00  0.8000E+02
     -3.626  0.0000E+00  0.8000E+02
     -3.522  0.0000E+00  0.8000E+02
     -3.418  0.6136E-13  0.8000E+02
     -3.314  0.1787E-05  0.8000E+02
     -3.210  0.1666E-01  0.8000E+02
     -3.107  0.2176E+00  0.8002E+02
     -3.003  0.1049E+01  0.8013E+02
     -2.899  0.3321E+00  0.8017E+02
     -2.795  0.1036E+01  0.8028E+02
     -2.691  0.1412E+01  0.8042E+02
     -2.587  0.2626E+00  0.8045E+02
     -2.483  0.3265E+00  0.8048E+02
     -2.379  0.2249E+01  0.8072E+02
     -2.275  0.5782E+00  0.8078E+02
     -2.171  0.9281E+00  0.8087E+02
     -2.067  0.2155E-01  0.8088E+02
     -1.963  0.7277E+00  0.8095E+02
     -1.859  0.2474E+01  0.8121E+02
     -1.755  0.8907E+00  0.8130E+02
     -1.651  0.1340E+00  0.8132E+02
     -1.547  0.1125E+01  0.8143E+02
     -1.443  0.1094E+00  0.8144E+02
     -1.340  0.3075E+00  0.8148E+02
     -1.236  0.2238E+01  0.8171E+02
     -1.132  0.1192E+01  0.8183E+02
     -1.028  0.1704E+01  0.8201E+02
     -0.924  0.2375E-01  0.8201E+02
     -0.820  0.5916E-01  0.8202E+02
     -0.716  0.1089E+01  0.8213E+02
     -0.612  0.2215E+00  0.8215E+02
     -0.508  0.7052E+00  0.8223E+02
     -0.404  0.2626E+01  0.8250E+02
     -0.300  0.7672E+00  0.8258E+02
     -0.196  0.1161E+01  0.8270E+02
     -0.092  0.1554E+01  0.8286E+02
      0.012  0.1440E-01  0.8286E+02
      0.116  0.4354E-01  0.8287E+02
      0.220  0.1078E+01  0.8298E+02
      0.324  0.2652E+00  0.8301E+02
      0.427  0.1102E+01  0.8312E+02
      0.531  0.3974E+01  0.8354E+02
      0.635  0.1871E+01  0.8373E+02
      0.739  0.6761E+00  0.8380E+02
      0.843  0.9773E-01  0.8381E+02
      0.947  0.4161E-01  0.8381E+02
      1.051  0.5992E+00  0.8388E+02
      1.155  0.1033E+01  0.8398E+02
      1.259  0.9937E+00  0.8409E+02
      1.363  0.1631E+01  0.8426E+02
      1.467  0.8788E+00  0.8435E+02
      1.571  0.1124E+01  0.8447E+02
      1.675  0.1444E+00  0.8448E+02
      1.779  0.1277E+01  0.8461E+02
      1.883  0.1988E+01  0.8482E+02
      1.987  0.9453E+00  0.8492E+02
      2.091  0.1811E+01  0.8511E+02
      2.194  0.1422E+01  0.8525E+02
      2.298  0.1921E+01  0.8545E+02
      2.402  0.3928E+01  0.8586E+02
      2.506  0.1679E+01  0.8604E+02
      2.610  0.3858E+01  0.8644E+02
      2.714  0.2677E+01  0.8672E+02
      2.818  0.1593E+01  0.8688E+02
      2.922  0.1750E+01  0.8706E+02
      3.026  0.3235E+01  0.8740E+02
      3.130  0.5904E+01  0.8801E+02
      3.234  0.3848E+01  0.8841E+02
      3.338  0.3634E+01  0.8879E+02
      3.442  0.4464E+01  0.8925E+02
      3.546  0.7904E+01  0.9008E+02
      3.650  0.4079E+01  0.9050E+02
      3.754  0.7637E+01  0.9129E+02
      3.858  0.4435E+01  0.9176E+02
      3.961  0.5540E+01  0.9233E+02
      4.065  0.9406E+01  0.9331E+02
      4.169  0.5905E+01  0.9392E+02
      4.273  0.6023E+01  0.9455E+02
      4.377  0.3900E+01  0.9495E+02
      4.481  0.6202E+01  0.9560E+02
      4.585  0.8048E+01  0.9644E+02
      4.689  0.5477E+01  0.9700E+02
      4.793  0.6300E+01  0.9766E+02
      4.897  0.6063E+01  0.9829E+02
      5.001  0.1005E+02  0.9933E+02
      5.105  0.7335E+01  0.1001E+03
      5.209  0.8499E+01  0.1010E+03
      5.313  0.1260E+02  0.1023E+03
      5.417  0.1192E+02  0.1035E+03
      5.521  0.8477E+01  0.1044E+03
      5.625  0.1046E+02  0.1055E+03
      5.728  0.9285E+01  0.1065E+03
      5.832  0.6770E+01  0.1072E+03
      5.936  0.6285E+01  0.1078E+03
      6.040  0.3986E+01  0.1082E+03
      6.144  0.4688E+01  0.1087E+03
      6.248  0.4363E+01  0.1092E+03
      6.352  0.3024E+01  0.1095E+03
      6.456  0.1710E+01  0.1097E+03
      6.560  0.4861E+00  0.1097E+03
      6.664  0.1070E+01  0.1098E+03
      6.768  0.1029E+01  0.1099E+03
      6.872  0.6020E+00  0.1100E+03
      6.976  0.2096E-01  0.1100E+03
      7.080  0.5136E-06  0.1100E+03
      7.184  0.3110E-14  0.1100E+03
      7.288  0.0000E+00  0.1100E+03
      7.392  0.0000E+00  0.1100E+03
      7.495  0.0000E+00  0.1100E+03
      7.599  0.0000E+00  0.1100E+03
      7.703  0.0000E+00  0.1100E+03
      7.807  0.0000E+00  0.1100E+03
      7.911  0.0000E+00  0.1100E+03
      8.015  0.0000E+00  0.1100E+03
      8.119  0.0000E+00  0.1100E+03
      8.223  0.0000E+00  0.1100E+03
