       N       E                     dE             d eps       ncg     rms          rms(c)
DAV:   1     0.707479512528E+03    0.70748E+03   -0.31069E+04  2580   0.104E+03
DAV:   2    -0.495237710128E+01   -0.71243E+03   -0.68561E+03  3270   0.275E+02
DAV:   3    -0.132105676041E+03   -0.12715E+03   -0.12632E+03  2800   0.123E+02
DAV:   4    -0.135383586354E+03   -0.32779E+01   -0.32696E+01  2870   0.243E+01
DAV:   5    -0.135447906051E+03   -0.64320E-01   -0.64280E-01  2880   0.306E+00    0.231E+01
DAV:   6    -0.119064701511E+03    0.16383E+02   -0.77622E+01  2715   0.336E+01    0.728E+00
DAV:   7    -0.119046125060E+03    0.18576E-01   -0.18825E+00  2575   0.528E+00    0.475E+00
DAV:   8    -0.118956346388E+03    0.89779E-01   -0.59879E-01  2905   0.465E+00    0.110E+00
DAV:   9    -0.118932009537E+03    0.24337E-01   -0.62393E-02  2910   0.121E+00    0.562E-01
DAV:  10    -0.118927638026E+03    0.43715E-02   -0.36886E-02  2680   0.784E-01    0.177E-01
DAV:  11    -0.118926322528E+03    0.13155E-02   -0.60429E-03  2920   0.336E-01    0.200E-01
DAV:  12    -0.118923609835E+03    0.27127E-02   -0.24372E-03  3365   0.395E-01    0.102E-01
DAV:  13    -0.118922003523E+03    0.16063E-02   -0.32058E-03  2995   0.346E-01    0.757E-02
DAV:  14    -0.118919236745E+03    0.27668E-02   -0.24502E-03  3005   0.377E-01    0.912E-02
DAV:  15    -0.118916528956E+03    0.27078E-02   -0.23314E-03  3860   0.428E-01    0.987E-02
DAV:  16    -0.118915170810E+03    0.13581E-02   -0.13365E-03  2840   0.273E-01    0.644E-02
DAV:  17    -0.118913401297E+03    0.17695E-02   -0.11609E-03  3530   0.435E-01    0.321E-02
DAV:  18    -0.118912134669E+03    0.12666E-02   -0.85482E-04  3150   0.409E-01    0.377E-02
DAV:  19    -0.118911511298E+03    0.62337E-03   -0.59521E-04  3940   0.490E-01    0.209E-02
DAV:  20    -0.118911339677E+03    0.17162E-03   -0.77085E-04  3675   0.515E-01    0.282E-02
DAV:  21    -0.118911541006E+03   -0.20133E-03   -0.78830E-04  2860   0.226E-01    0.237E-02
DAV:  22    -0.118911577736E+03   -0.36730E-04   -0.14395E-04  2890   0.939E-02    0.187E-02
DAV:  23    -0.118911620240E+03   -0.42503E-04   -0.59087E-05  2870   0.479E-02    0.112E-02
DAV:  24    -0.118911786106E+03   -0.16587E-03   -0.65057E-05  2760   0.332E-02    0.167E-02
DAV:  25    -0.118911822267E+03   -0.36160E-04   -0.23226E-05  3225   0.393E-02    0.158E-02
DAV:  26    -0.118911935815E+03   -0.11355E-03   -0.12260E-04  3460   0.856E-02    0.163E-02
DAV:  27    -0.118911936855E+03   -0.10408E-05   -0.25714E-05  2805   0.525E-02    0.166E-02
DAV:  28    -0.118911922612E+03    0.14243E-04   -0.62782E-05  3135   0.659E-02    0.122E-02
DAV:  29    -0.118911911135E+03    0.11477E-04   -0.26293E-05  2945   0.367E-02    0.135E-02
DAV:  30    -0.118911948823E+03   -0.37688E-04   -0.12716E-05  2685   0.151E-02    0.121E-02
DAV:  31    -0.118911997541E+03   -0.48718E-04   -0.21905E-05  2675   0.297E-02    0.520E-03
DAV:  32    -0.118912004158E+03   -0.66168E-05   -0.14961E-05  2730   0.217E-02    0.707E-03
DAV:  33    -0.118912053082E+03   -0.48925E-04   -0.11392E-05  2710   0.304E-02    0.610E-03
DAV:  34    -0.118912094344E+03   -0.41262E-04   -0.18722E-06  1980   0.272E-02    0.546E-03
DAV:  35    -0.118912123686E+03   -0.29342E-04   -0.53801E-06  2460   0.140E-02    0.321E-03
DAV:  36    -0.118912165520E+03   -0.41834E-04   -0.28926E-06  2185   0.251E-02    0.513E-03
DAV:  37    -0.118912188840E+03   -0.23319E-04   -0.59707E-06  2410   0.134E-02    0.751E-03
DAV:  38    -0.118912198484E+03   -0.96441E-05   -0.57370E-06  2675   0.119E-02    0.191E-03
DAV:  39    -0.118912210771E+03   -0.12288E-04   -0.12074E-06  1965   0.910E-03    0.233E-03
DAV:  40    -0.118912223786E+03   -0.13015E-04   -0.71241E-07  2025   0.782E-03    0.276E-03
DAV:  41    -0.118912238143E+03   -0.14357E-04   -0.65642E-07  1865   0.635E-03    0.184E-03
DAV:  42    -0.118912244673E+03   -0.65299E-05   -0.69940E-07  1945   0.556E-03    0.973E-04
DAV:  43    -0.118912247002E+03   -0.23290E-05   -0.46385E-07  1875   0.387E-03    0.138E-03
DAV:  44    -0.118912248061E+03   -0.10587E-05   -0.84917E-08  1815   0.183E-03    0.106E-03
DAV:  45    -0.118912249819E+03   -0.17586E-05   -0.12770E-07  1840   0.373E-03    0.402E-04
DAV:  46    -0.118912251748E+03   -0.19287E-05   -0.20082E-07  1790   0.189E-03    0.662E-04
DAV:  47    -0.118912252266E+03   -0.51801E-06   -0.16285E-08  1725   0.681E-04
   1 F= -.11891225E+03 E0= -.11891183E+03  d E =-.834670E-03
