 vasp.5.4.4.18Apr17-6-g9f103f2a35 (build Nov 15 2019 10:10:58) complex          
  
 executed on             LinuxIFC date 2024.09.28  14:56:51
 running on   20 total cores
 distrk:  each k-point on   20 cores,    1 groups
 distr:  one band on NCORES_PER_BAND=   4 cores,    5 groups


--------------------------------------------------------------------------------------------------------


 INCAR:
 POTCAR:    PAW_PBE O 08Apr2002                   
 POTCAR:    PAW_PBE Mg 13Apr2007                  
 POTCAR:    PAW_PBE O 08Apr2002                   
   VRHFIN =O: s2p4                                                              
   LEXCH  = PE                                                                  
   EATOM  =   432.3788 eV,   31.7789 Ry                                         
                                                                                
   TITEL  = PAW_PBE O 08Apr2002                                                 
   LULTRA =        F    use ultrasoft PP ?                                      
   IUNSCR =        1    unscreen: 0-lin 1-nonlin 2-no                           
   RPACOR =    1.200    partial core radius                                     
   POMASS =   16.000; ZVAL   =    6.000    mass and valenz                      
   RCORE  =    1.520    outmost cutoff radius                                   
   RWIGS  =    1.550; RWIGS  =    0.820    wigner-seitz radius (au A)           
   ENMAX  =  400.000; ENMIN  =  300.000 eV                                      
   ICORE  =        2    local potential                                         
   LCOR   =        T    correct aug charges                                     
   LPAW   =        T    paw PP                                                  
   EAUG   =  605.392                                                            
   DEXC   =    0.000                                                            
   RMAX   =    1.553    core radius for proj-oper                               
   RAUG   =    1.300    factor for augmentation sphere                          
   RDEP   =    1.550    radius for radial grids                                 
   RDEPT  =    1.329    core radius for aug-charge                              
                                                                                
   Atomic configuration                                                         
    4 entries                                                                   
     n  l   j            E        occ.                                          
     1  0  0.50      -514.6923   2.0000                                         
     2  0  0.50       -23.9615   2.0000                                         
     2  1  0.50        -9.0305   4.0000                                         
     3  2  1.50        -9.5241   0.0000                                         
   Description                                                                  
     l       E           TYP  RCUT    TYP  RCUT                                 
     0    -23.9615318     23  1.200                                             
     0     -9.5240782     23  1.200                                             
     1     -9.0304911     23  1.520                                             
     1      8.1634956     23  1.520                                             
     2     -9.5240782      7  1.500                                             
  local pseudopotential read in
  partial core-charges read in
  partial kinetic energy density read in
  kinetic energy density of atom read in
  atomic valenz-charges read in
  non local Contribution for L=           0  read in
    real space projection operators read in
  non local Contribution for L=           0  read in
    real space projection operators read in
  non local Contribution for L=           1  read in
    real space projection operators read in
  non local Contribution for L=           1  read in
    real space projection operators read in
    PAW grid and wavefunctions read in
 
   number of l-projection  operators is LMAX  =           4
   number of lm-projection operators is LMMAX =           8
 
 POTCAR:    PAW_PBE Mg 13Apr2007                  
   VRHFIN =Mg: s2p0                                                             
   LEXCH  = PE                                                                  
   EATOM  =    23.0369 eV,    1.6932 Ry                                         
                                                                                
   TITEL  = PAW_PBE Mg 13Apr2007                                                
   LULTRA =        F    use ultrasoft PP ?                                      
   IUNSCR =        1    unscreen: 0-lin 1-nonlin 2-no                           
   RPACOR =    1.500    partial core radius                                     
   POMASS =   24.305; ZVAL   =    2.000    mass and valenz                      
   RCORE  =    2.000    outmost cutoff radius                                   
   RWIGS  =    2.880; RWIGS  =    1.524    wigner-seitz radius (au A)           
   ENMAX  =  200.000; ENMIN  =  100.000 eV                                      
   RCLOC  =    1.506    cutoff for local pot                                    
   LCOR   =        T    correct aug charges                                     
   LPAW   =        T    paw PP                                                  
   EAUG   =  454.734                                                            
   DEXC   =    0.000                                                            
   RMAX   =    2.045    core radius for proj-oper                               
   RAUG   =    1.300    factor for augmentation sphere                          
   RDEP   =    2.025    radius for radial grids                                 
   RDEPT  =    1.942    core radius for aug-charge                              
                                                                                
   Atomic configuration                                                         
    6 entries                                                                   
     n  l   j            E        occ.                                          
     1  0  0.50     -1259.6230   2.0000                                         
     2  0  0.50       -79.8442   2.0000                                         
     2  1  1.50       -46.6121   6.0000                                         
     3  0  0.50        -4.7055   2.0000                                         
     3  1  0.50        -1.3660   0.0000                                         
     3  2  1.50        -1.3606   0.0000                                         
   Description                                                                  
     l       E           TYP  RCUT    TYP  RCUT                                 
     0     -4.7054661     23  2.000                                             
     0     27.2116520     23  2.000                                             
     1      1.3605826     23  2.000                                             
     1     27.2116520     23  2.000                                             
     2     -1.3605826     23  2.000                                             
  local pseudopotential read in
  partial core-charges read in
  partial kinetic energy density read in
  atomic valenz-charges read in
  non local Contribution for L=           0  read in
    real space projection operators read in
  non local Contribution for L=           0  read in
    real space projection operators read in
  non local Contribution for L=           1  read in
    real space projection operators read in
  non local Contribution for L=           1  read in
    real space projection operators read in
  non local Contribution for L=           2  read in
    real space projection operators read in
    PAW grid and wavefunctions read in
 
   number of l-projection  operators is LMAX  =           5
   number of lm-projection operators is LMMAX =          13
 

 ----------------------------------------------------------------------------- 
|                                                                             |
|  ADVICE TO THIS USER RUNNING 'VASP/VAMP'   (HEAR YOUR MASTER'S VOICE ...):  |
|                                                                             |
|      You have a (more or less) 'large supercell' and for larger cells       |
|      it might be more efficient to use real space projection opertators     |
|      So try LREAL= Auto  in the INCAR   file.                               |
|      Mind:          For very  accurate calculation you might also keep the  |
|      reciprocal projection scheme          (i.e. LREAL=.FALSE.)             |
|                                                                             |
 ----------------------------------------------------------------------------- 

  PAW_PBE O 08Apr2002                   :
 energy of atom  1       EATOM= -432.3788
 kinetic energy error for atom=    0.0389 (will be added to EATOM!!)
  PAW_PBE Mg 13Apr2007                  :
 energy of atom  2       EATOM=  -23.0369
 kinetic energy error for atom=    0.0001 (will be added to EATOM!!)
 
 
 POSCAR: Layer (20)                              
  positions in direct lattice
  velocities in cartesian coordinates
 exchange correlation table for  LEXCH =        8
   RHO(1)=    0.500       N(1)  =     2000
   RHO(2)=  100.500       N(2)  =     4000

 VTST: version 3.2, (02/03/18)

 CHAIN: initializing optimizer
 
 OPT: Using VASP Conjugate-Gradient optimizer
 CHAIN: Read ICHAIN            0
 
 POSCAR: Layer (20)                              
  positions in direct lattice
  velocities in cartesian coordinates
 


--------------------------------------------------------------------------------------------------------


 ion  position               nearest neighbor table
   1  0.000  0.000  0.440-  14 2.12  14 2.12  14 2.12  18 2.14  18 2.14  18 2.14
   2  0.333  0.667  0.470-  14 2.11  14 2.11  14 2.11  11 2.12  11 2.12  11 2.12
   3  0.000  0.000  0.530-  19 2.11  19 2.11  19 2.11  15 2.12  15 2.12  15 2.12
   4  0.333  0.667  0.560-  15 2.11  15 2.11  15 2.11  12 2.12  12 2.12  12 2.12
   5  0.000  0.000  0.619-  20 2.11  20 2.11  20 2.11  16 2.12  16 2.12  16 2.12
   6  0.333  0.667  0.649-  16 2.11  16 2.11  16 2.11  13 2.12  13 2.12  13 2.12
   7  0.000  0.000  0.709-  21 2.11  21 2.11  21 2.11  17 2.15  17 2.15  17 2.15
   8  0.667  0.333  0.500-  11 2.11  11 2.11  11 2.11  19 2.12  19 2.12  19 2.12
   9  0.667  0.333  0.589-  12 2.11  12 2.11  12 2.11  20 2.12  20 2.12  20 2.12
  10  0.667  0.333  0.679-  13 2.11  13 2.11  13 2.11  21 2.12  21 2.12  21 2.12
  11  0.000  0.000  0.485-   8 2.11   8 2.11   8 2.11   2 2.12   2 2.12   2 2.12  14 3.00  14 3.00
                            14 3.00  19 3.00  19 3.00  19 3.00
  12  0.000  0.000  0.575-   9 2.11   9 2.11   9 2.11   4 2.12   4 2.12   4 2.12  15 3.00  15 3.00
                            15 3.00  20 3.00  20 3.00  20 3.00
  13  0.000  0.000  0.664-  10 2.11  10 2.11  10 2.11   6 2.12   6 2.12   6 2.12  16 3.00  16 3.00
                            16 3.00  21 3.00  21 3.00  21 3.00
  14  0.667  0.333  0.455-   2 2.11   2 2.11   2 2.11   1 2.12   1 2.12   1 2.12  11 3.00  11 3.00
                            11 3.00  18 3.03  18 3.03  18 3.03
  15  0.667  0.333  0.545-   4 2.11   4 2.11   4 2.11   3 2.12   3 2.12   3 2.12  19 3.00  19 3.00
                            19 3.00  12 3.00  12 3.00  12 3.00
  16  0.667  0.333  0.634-   6 2.11   6 2.11   6 2.11   5 2.12   5 2.12   5 2.12  13 3.00  13 3.00
                            13 3.00  20 3.00  20 3.00  20 3.00
  17  0.667  0.333  0.725-   7 2.15   7 2.15   7 2.15  21 3.04  21 3.04  21 3.04
  18  0.333  0.667  0.425-   1 2.14   1 2.14   1 2.14  14 3.03  14 3.03  14 3.03
  19  0.333  0.667  0.515-   3 2.11   3 2.11   3 2.11   8 2.12   8 2.12   8 2.12  11 3.00  11 3.00
                            11 3.00  15 3.00  15 3.00  15 3.00
  20  0.333  0.667  0.604-   5 2.11   5 2.11   5 2.11   9 2.12   9 2.12   9 2.12  12 3.00  12 3.00
                            12 3.00  16 3.00  16 3.00  16 3.00
  21  0.333  0.667  0.694-   7 2.11   7 2.11   7 2.11  10 2.12  10 2.12  10 2.12  13 3.00  13 3.00
                            13 3.00  17 3.04  17 3.04  17 3.04
 
  LATTYP: Found a hexagonal cell.
 ALAT       =     2.9850604079
 C/A-ratio  =    27.5396116811
  
  Lattice vectors:
  
 A1 = (   2.5851399813,  -1.4925270234,   0.0000000000)
 A2 = (   0.0000000000,   2.9850540469,   0.0000000000)
 A3 = (  -0.0000000000,   0.0000000000,  82.2074044782)


Analysis of symmetry for initial positions (statically):
=====================================================================
 Subroutine PRICEL returns:
 Original cell was already a primitive cell.
 

 Routine SETGRP: Setting up the symmetry group for a 
 hexagonal supercell.


 Subroutine GETGRP returns: Found  6 space group operations
 (whereof  6 operations were pure point group operations)
 out of a pool of 24 trial point group operations.


The static configuration has the point symmetry C_3v.


Analysis of symmetry for dynamics (positions and initial velocities):
=====================================================================
 Subroutine PRICEL returns:
 Original cell was already a primitive cell.
 

 Routine SETGRP: Setting up the symmetry group for a 
 hexagonal supercell.


 Subroutine GETGRP returns: Found  6 space group operations
 (whereof  6 operations were pure point group operations)
 out of a pool of 24 trial point group operations.


The dynamic configuration has the point symmetry C_3v.


Analysis of constrained symmetry for selective dynamics:
=====================================================================
 Subroutine PRICEL returns:
 Original cell was already a primitive cell.
 

 Routine SETGRP: Setting up the symmetry group for a 
 hexagonal supercell.


 Subroutine GETGRP returns: Found  6 space group operations
 (whereof  6 operations were pure point group operations)
 out of a pool of 24 trial point group operations.


The constrained configuration has the point symmetry C_3v.


 Subroutine INISYM returns: Found  6 space group operations
 (whereof  6 operations are pure point group operations),
 and found     1 'primitive' translations

 
 
 KPOINTS: K-Spacing Value to Generate K-Mesh: 0.02

Automatic generation of k-mesh.
Space group operators:
 irot       det(A)        alpha          n_x          n_y          n_z        tau_x        tau_y        tau_z
    1     1.000000     0.000000     1.000000     0.000000     0.000000     0.000000     0.000000     0.000000
    2     1.000000   120.000000     0.000000    -0.000000    -1.000000     0.000000     0.000000     0.000000
    3     1.000000   120.000000    -0.000000    -0.000000     1.000000     0.000000     0.000000     0.000000
    4    -1.000000   180.000000     0.866025    -0.500001     0.000000     0.000000     0.000000     0.000000
    5    -1.000000   180.000000     0.000000     1.000000     0.000000     0.000000     0.000000     0.000000
    6    -1.000000   180.000000     0.866025     0.500001     0.000000     0.000000     0.000000     0.000000
 
 Subroutine IBZKPT returns following result:
 ===========================================
 
 Found     21 irreducible k-points:
 
 Following reciprocal coordinates:
            Coordinates               Weight
  0.000000  0.000000  0.000000      1.000000
  0.076923  0.000000  0.000000      6.000000
  0.153846  0.000000  0.000000      6.000000
  0.230769  0.000000  0.000000      6.000000
  0.307692  0.000000  0.000000      6.000000
  0.384615  0.000000  0.000000      6.000000
  0.461538  0.000000  0.000000      6.000000
  0.076923  0.076923  0.000000      6.000000
  0.153846  0.076923  0.000000     12.000000
  0.230769  0.076923  0.000000     12.000000
  0.307692  0.076923  0.000000     12.000000
  0.384615  0.076923  0.000000     12.000000
  0.461538  0.076923  0.000000      6.000000
  0.153846  0.153846  0.000000      6.000000
  0.230769  0.153846  0.000000     12.000000
  0.307692  0.153846  0.000000     12.000000
  0.384615  0.153846  0.000000     12.000000
  0.230769  0.230769  0.000000      6.000000
  0.307692  0.230769  0.000000     12.000000
  0.384615  0.230769  0.000000      6.000000
  0.307692  0.307692  0.000000      6.000000
 
 Following cartesian coordinates:
            Coordinates               Weight
  0.000000  0.000000  0.000000      1.000000
  0.029756  0.000000  0.000000      6.000000
  0.059512  0.000000  0.000000      6.000000
  0.089268  0.000000  0.000000      6.000000
  0.119023  0.000000  0.000000      6.000000
  0.148779  0.000000  0.000000      6.000000
  0.178535  0.000000  0.000000      6.000000
  0.044634  0.025769  0.000000      6.000000
  0.074390  0.025769  0.000000     12.000000
  0.104146  0.025769  0.000000     12.000000
  0.133901  0.025769  0.000000     12.000000
  0.163657  0.025769  0.000000     12.000000
  0.193413  0.025769  0.000000      6.000000
  0.089268  0.051539  0.000000      6.000000
  0.119023  0.051539  0.000000     12.000000
  0.148779  0.051539  0.000000     12.000000
  0.178535  0.051539  0.000000     12.000000
  0.133901  0.077308  0.000000      6.000000
  0.163657  0.077308  0.000000     12.000000
  0.193413  0.077308  0.000000      6.000000
  0.178535  0.103078  0.000000      6.000000
 


--------------------------------------------------------------------------------------------------------




 Dimension of arrays:
   k-points           NKPTS =     21   k-points in BZ     NKDIM =     21   number of bands    NBANDS=     55
   number of dos      NEDOS =    301   number of ions     NIONS =     21
   non local maximal  LDIM  =      5   non local SUM 2l+1 LMDIM =     13
   total plane-waves  NPLWV = 368640
   max r-space proj   IRMAX =      1   max aug-charges    IRDMAX= 197659
   dimension x,y,z NGX =    24 NGY =   24 NGZ =  640
   dimension x,y,z NGXF=    48 NGYF=   48 NGZF= 1280
   support grid    NGXF=    96 NGYF=   96 NGZF= 2560
   ions per type =              10  11
   NGX,Y,Z   is equivalent  to a cutoff of  13.37, 13.37, 12.94 a.u.
   NGXF,Y,Z  is equivalent  to a cutoff of  26.73, 26.73, 25.89 a.u.

 Based on PREC, I would recommend the following setting:
   dimension x,y,z NGX =    24 NGY =   24 NGZ =  576

 SYSTEM =  unknown system                          
 POSCAR =  Layer (20)                              

 Startparameter for this run:
   NWRITE =      2    write-flag & timer
   PREC   = accura    normal or accurate (medium, high low for compatibility)
   ISTART =      0    job   : 0-new  1-cont  2-samecut
   ICHARG =      2    charge: 1-file 2-atom 10-const
   ISPIN  =      1    spin polarized calculation?
   LNONCOLLINEAR =      F non collinear calculations
   LSORBIT =      F    spin-orbit coupling
   INIWAV =      1    electr: 0-lowe 1-rand  2-diag
   LASPH  =      F    aspherical Exc in radial PAW
   METAGGA=      F    non-selfconsistent MetaGGA calc.

 Electronic Relaxation 1
   ENCUT  =  450.0 eV  33.07 Ry    5.75 a.u.   5.16  5.16142.19*2*pi/ulx,y,z
   ENINI  =  450.0     initial cutoff
   ENAUG  =  605.4 eV  augmentation charge cutoff
   NELM   =    100;   NELMIN=  6; NELMDL=  0     # of ELM steps 
   EDIFF  = 0.1E-05   stopping-criterion for ELM
   LREAL  =      F    real-space projection
   NLSPLINE    = F    spline interpolate recip. space projectors
   LCOMPAT=      F    compatible to vasp.4.4
   GGA_COMPAT  = T    GGA compatible to vasp.4.4-vasp.4.6
   LMAXPAW     = -100 max onsite density
   LMAXMIX     =    2 max onsite mixed and CHGCAR
   VOSKOWN=      0    Vosko Wilk Nusair interpolation
   ROPT   =    0.00000   0.00000
 Ionic relaxation
   EDIFFG = -.2E-01   stopping-criterion for IOM
   NSW    =      0    number of steps for IOM
   NBLOCK =      1;   KBLOCK =      1    inner block; outer block 
   IBRION =     -1    ionic relax: 0-MD 1-quasi-New 2-CG
   NFREE  =      1    steps in history (QN), initial steepest desc. (CG)
   ISIF   =      4    stress and relaxation
   IWAVPR =     10    prediction:  0-non 1-charg 2-wave 3-comb
   ISYM   =      2    0-nonsym 1-usesym 2-fastsym
   LCORR  =      T    Harris-Foulkes like correction to forces

   POTIM  = 0.5000    time-step for ionic-motion
   TEIN   =    0.0    initial temperature
   TEBEG  =    0.0;   TEEND  =   0.0 temperature during run
   SMASS  =  -3.00    Nose mass-parameter (am)
   estimated Nose-frequenzy (Omega)   =  0.10E-29 period in steps =****** mass=  -0.204E-27a.u.
   SCALEE = 1.0000    scale energy and forces
   NPACO  =    256;   APACO  = 16.0  distance and # of slots for P.C.
   PSTRESS=    0.0 pullay stress

  Mass of Ions in am
   POMASS =  16.00 24.30
  Ionic Valenz
   ZVAL   =   6.00  2.00
  Atomic Wigner-Seitz radii
   RWIGS  =  -1.00 -1.00
  virtual crystal weights 
   VCA    =   1.00  1.00
   NELECT =      82.0000    total number of electrons
   NUPDOWN=      -1.0000    fix difference up-down

 DOS related values:
   EMIN   =  10.00;   EMAX   =-10.00  energy-range for DOS
   EFERMI =   0.00
   ISMEAR =     0;   SIGMA  =   0.05  broadening in eV -4-tet -1-fermi 0-gaus

 Electronic relaxation 2 (details)
   IALGO  =     38    algorithm
   LDIAG  =      T    sub-space diagonalisation (order eigenvalues)
   LSUBROT=      F    optimize rotation matrix (better conditioning)
   TURBO    =      0    0=normal 1=particle mesh
   IRESTART =      0    0=no restart 2=restart with 2 vectors
   NREBOOT  =      0    no. of reboots
   NMIN     =      0    reboot dimension
   EREF     =   0.00    reference energy to select bands
   IMIX   =      4    mixing-type and parameters
     AMIX     =   0.40;   BMIX     =  1.00
     AMIX_MAG =   1.60;   BMIX_MAG =  1.00
     AMIN     =   0.01
     WC   =   100.;   INIMIX=   1;  MIXPRE=   1;  MAXMIX= -45

 Intra band minimization:
   WEIMIN = 0.0000     energy-eigenvalue tresh-hold
   EBREAK =  0.45E-08  absolut break condition
   DEPER  =   0.30     relativ break condition  

   TIME   =   0.40     timestep for ELM

  volume/ion in A,a.u.               =      30.21       203.86
  Fermi-wavevector in a.u.,A,eV,Ry     =   0.827746  1.564213  9.322213  0.685163
  Thomas-Fermi vector in A             =   1.940003
 
 Write flags
   LWAVE        =      F    write WAVECAR
   LDOWNSAMPLE  =      F    k-point downsampling of WAVECAR
   LCHARG       =      T    write CHGCAR
   LVTOT        =      F    write LOCPOT, total local potential
   LVHAR        =      F    write LOCPOT, Hartree potential only
   LELF         =      F    write electronic localiz. function (ELF)
   LORBIT       =      0    0 simple, 1 ext, 2 COOP (PROOUT), +10 PAW based schemes


 Dipole corrections
   LMONO  =      F    monopole corrections only (constant potential shift)
   LDIPOL =      F    correct potential (dipole corrections)
   IDIPOL =      0    1-x, 2-y, 3-z, 4-all directions 
   EPSILON=  1.0000000 bulk dielectric constant

 Exchange correlation treatment:
   GGA     =    --    GGA type
   LEXCH   =     8    internal setting for exchange type
   VOSKOWN=      0    Vosko Wilk Nusair interpolation
   LHFCALC =     F    Hartree Fock is set to
   LHFONE  =     F    Hartree Fock one center treatment
   AEXX    =    0.0000 exact exchange contribution

 Linear response parameters
   LEPSILON=     F    determine dielectric tensor
   LRPA    =     F    only Hartree local field effects (RPA)
   LNABLA  =     F    use nabla operator in PAW spheres
   LVEL    =     F    velocity operator in full k-point grid
   LINTERFAST=   F  fast interpolation
   KINTER  =     0    interpolate to denser k-point grid
   CSHIFT  =0.1000    complex shift for real part using Kramers Kronig
   OMEGAMAX=  -1.0    maximum frequency
   DEG_THRESHOLD= 0.2000000E-02 threshold for treating states as degnerate
   RTIME   =   -0.100 relaxation time in fs
  (WPLASMAI=    0.000 imaginary part of plasma frequency in eV, 0.658/RTIME)
   DFIELD  = 0.0000000 0.0000000 0.0000000 field for delta impulse in time
 
 Orbital magnetization related:
   ORBITALMAG=     F  switch on orbital magnetization
   LCHIMAG   =     F  perturbation theory with respect to B field
   DQ        =  0.001000  dq finite difference perturbation B field
   LLRAUG    =     F  two centre corrections for induced B field



--------------------------------------------------------------------------------------------------------


 Static calculation
 charge density and potential will be updated during run
 non-spin polarized calculation
 Variant of blocked Davidson
 Davidson routine will perform the subspace rotation
 perform sub-space diagonalisation
    after iterative eigenvector-optimisation
 modified Broyden-mixing scheme, WC =      100.0
 initial mixing is a Kerker type mixing with AMIX =  0.4000 and BMIX =      1.0000
 Hartree-type preconditioning will be used
 using additional bands           14
 reciprocal scheme for non local part
 use partial core corrections
 calculate Harris-corrections to forces 
   (improved forces if not selfconsistent)
 use gradient corrections 
 use of overlap-Matrix (Vanderbilt PP)
 Gauss-broadening in eV      SIGMA  =   0.05


--------------------------------------------------------------------------------------------------------


  energy-cutoff  :      450.00
  volume of cell :      634.38
      direct lattice vectors                 reciprocal lattice vectors
     2.585139981 -1.492527023  0.000000000     0.386826248  0.000000000  0.000000000
     0.000000000  2.985054047  0.000000000     0.193413124  0.335002310  0.000000000
    -0.000000000  0.000000000 82.207404478    -0.000000000  0.000000000  0.012164354

  length of vectors
     2.985060408  2.985054047 82.207404478     0.386826248  0.386827072  0.012164354


 
 k-points in units of 2pi/SCALE and weight: K-Spacing Value to Generate K-Mesh: 0.02
   0.00000000  0.00000000  0.00000000       0.006
   0.02975587  0.00000000  0.00000000       0.036
   0.05951173  0.00000000  0.00000000       0.036
   0.08926760  0.00000000  0.00000000       0.036
   0.11902346  0.00000000  0.00000000       0.036
   0.14877933  0.00000000  0.00000000       0.036
   0.17853519  0.00000000  0.00000000       0.036
   0.04463380  0.02576941  0.00000000       0.036
   0.07438966  0.02576941  0.00000000       0.071
   0.10414553  0.02576941  0.00000000       0.071
   0.13390139  0.02576941  0.00000000       0.071
   0.16365726  0.02576941  0.00000000       0.071
   0.19341312  0.02576941  0.00000000       0.036
   0.08926760  0.05153882  0.00000000       0.036
   0.11902346  0.05153882  0.00000000       0.071
   0.14877933  0.05153882  0.00000000       0.071
   0.17853519  0.05153882  0.00000000       0.071
   0.13390139  0.07730823  0.00000000       0.036
   0.16365726  0.07730823  0.00000000       0.071
   0.19341312  0.07730823  0.00000000       0.036
   0.17853519  0.10307763  0.00000000       0.036
 
 k-points in reciprocal lattice and weights: K-Spacing Value to Generate K-Mesh: 0.02
   0.00000000  0.00000000  0.00000000       0.006
   0.07692308  0.00000000  0.00000000       0.036
   0.15384615  0.00000000  0.00000000       0.036
   0.23076923  0.00000000  0.00000000       0.036
   0.30769231  0.00000000  0.00000000       0.036
   0.38461538  0.00000000  0.00000000       0.036
   0.46153846  0.00000000  0.00000000       0.036
   0.07692308  0.07692308  0.00000000       0.036
   0.15384615  0.07692308  0.00000000       0.071
   0.23076923  0.07692308  0.00000000       0.071
   0.30769231  0.07692308  0.00000000       0.071
   0.38461538  0.07692308  0.00000000       0.071
   0.46153846  0.07692308  0.00000000       0.036
   0.15384615  0.15384615  0.00000000       0.036
   0.23076923  0.15384615  0.00000000       0.071
   0.30769231  0.15384615  0.00000000       0.071
   0.38461538  0.15384615  0.00000000       0.071
   0.23076923  0.23076923  0.00000000       0.036
   0.30769231  0.23076923  0.00000000       0.071
   0.38461538  0.23076923  0.00000000       0.036
   0.30769231  0.30769231  0.00000000       0.036
 
 position of ions in fractional coordinates (direct lattice) 
   0.00000000  0.00000000  0.44023191
   0.33333300  0.66666700  0.47002476
   0.00000000  0.00000000  0.52969664
   0.33333300  0.66666700  0.55956929
   0.00000000  0.00000000  0.61935764
   0.33333300  0.66666700  0.64924925
   0.00000000  0.00000000  0.70901763
   0.66666700  0.33333300  0.49985184
   0.66666700  0.33333300  0.58946586
   0.66666700  0.33333300  0.67914964
   0.00000000  0.00000000  0.48499779
   0.00000000  0.00000000  0.57458012
   0.00000000  0.00000000  0.66425684
   0.66666700  0.33333300  0.45516430
   0.66666700  0.33333300  0.54468860
   0.66666700  0.33333300  0.63437127
   0.66666700  0.33333300  0.72467077
   0.33333300  0.66666700  0.42482170
   0.33333300  0.66666700  0.51484051
   0.33333300  0.66666700  0.60447233
   0.33333300  0.66666700  0.69416811
 
 position of ions in cartesian coordinates  (Angst):
  -0.00000000  0.00000000 36.19032241
   0.86171247  1.49252852 38.63951583
  -0.00000000  0.00000000 43.54498602
   0.86171247  1.49252852 46.00073886
  -0.00000000  0.00000000 50.91578421
   0.86171247  1.49252852 53.37309584
  -0.00000000  0.00000000 58.28649921
   1.72342752 -0.00000149 41.09152266
   1.72342752 -0.00000149 48.45845822
   1.72342752 -0.00000149 55.83112939
  -0.00000000  0.00000000 39.87040943
  -0.00000000  0.00000000 47.23473994
  -0.00000000  0.00000000 54.60683072
   1.72342752 -0.00000149 37.41787594
   1.72342752 -0.00000149 44.77743612
   1.72342752 -0.00000149 52.15001565
   1.72342752 -0.00000149 59.57330332
   0.86171247  1.49252852 34.92348941
   0.86171247  1.49252852 42.32370229
   0.86171247  1.49252852 49.69210119
   0.86171247  1.49252852 57.06575824
 


--------------------------------------------------------------------------------------------------------


 k-point  1 :   0.0000 0.0000 0.0000  plane waves:   13689
 k-point  2 :   0.0769 0.0000 0.0000  plane waves:   13653
 k-point  3 :   0.1538 0.0000 0.0000  plane waves:   13595
 k-point  4 :   0.2308 0.0000 0.0000  plane waves:   13741
 k-point  5 :   0.3077 0.0000 0.0000  plane waves:   13793
 k-point  6 :   0.3846 0.0000 0.0000  plane waves:   13799
 k-point  7 :   0.4615 0.0000 0.0000  plane waves:   13821
 k-point  8 :   0.0769 0.0769 0.0000  plane waves:   13615
 k-point  9 :   0.1538 0.0769 0.0000  plane waves:   13679
 k-point 10 :   0.2308 0.0769 0.0000  plane waves:   13754
 k-point 11 :   0.3077 0.0769 0.0000  plane waves:   13809
 k-point 12 :   0.3846 0.0769 0.0000  plane waves:   13815
 k-point 13 :   0.4615 0.0769 0.0000  plane waves:   13796
 k-point 14 :   0.1538 0.1538 0.0000  plane waves:   13705
 k-point 15 :   0.2308 0.1538 0.0000  plane waves:   13750
 k-point 16 :   0.3077 0.1538 0.0000  plane waves:   13799
 k-point 17 :   0.3846 0.1538 0.0000  plane waves:   13783
 k-point 18 :   0.2308 0.2308 0.0000  plane waves:   13759
 k-point 19 :   0.3077 0.2308 0.0000  plane waves:   13759
 k-point 20 :   0.3846 0.2308 0.0000  plane waves:   13735
 k-point 21 :   0.3077 0.3077 0.0000  plane waves:   13713

 maximum and minimum number of plane-waves per node :      3479     3374

 maximum number of plane-waves:     13821
 maximum index in each direction: 
   IXMAX=    5   IYMAX=    5   IZMAX=  142
   IXMIN=   -5   IYMIN=   -5   IZMIN= -142


 parallel 3D FFT for wavefunctions:
    minimum data exchange during FFTs selected (reduces bandwidth)
 parallel 3D FFT for charge:
    minimum data exchange during FFTs selected (reduces bandwidth)


 total amount of memory used by VASP MPI-rank0    98505. kBytes
=======================================================================

   base      :      30000. kBytes
   nonl-proj :      16181. kBytes
   fftplans  :      25300. kBytes
   grid      :      14022. kBytes
   one-center:         48. kBytes
   wavefun   :      12954. kBytes
 
     INWAV:  cpu time    0.0000: real time    0.0001
 Broyden mixing: mesh for mixing (old mesh)
   NGX = 11   NGY = 11   NGZ =285
  (NGX  = 48   NGY  = 48   NGZ  =***)
  gives a total of  34485 points

 initial charge density was supplied:
 charge density of overlapping atoms calculated
 number of electron      82.0000000 magnetization 
 keeping initial charge density in first step


--------------------------------------------------------------------------------------------------------


 Maximum index for augmentation-charges        10194 (set IRDMAX)


--------------------------------------------------------------------------------------------------------


 First call to EWALD:  gamma=   0.206
 Maximum number of real-space cells 8x 8x 1
 Maximum number of reciprocal cells 1x 1x22

    FEWALD:  cpu time    0.0017: real time    0.0017


--------------------------------------- Iteration      1(   1)  ---------------------------------------


    POTLOK:  cpu time    0.1217: real time    0.1289
    SETDIJ:  cpu time    0.1682: real time    0.1728
     EDDAV:  cpu time    5.9592: real time    6.3040
       DOS:  cpu time    0.0010: real time    0.0013
    --------------------------------------------
      LOOP:  cpu time    6.2500: real time    6.6070

 eigenvalue-minimisations  :  2580
 total energy-change (2. order) : 0.7074795E+03  (-0.3106929E+04)
 number of electron      82.0000000 magnetization 
 augmentation part       82.0000000 magnetization 

 Free energy of the ion-electron system (eV)
  ---------------------------------------------------
  alpha Z        PSCENC =        61.93168770
  Ewald energy   TEWEN  =    256722.51603457
  -Hartree energ DENC   =   -260681.10496994
  -exchange      EXHF   =         0.00000000
  -V(xc)+E(xc)   XCENC  =      -254.16566489
  PAW double counting   =      4183.86841685    -3631.36502166
  entropy T*S    EENTRO =        -0.00874591
  eigenvalues    EBANDS =      -270.99587372
  atomic energy  EATOM  =      4576.80364952
  Solvation  Ediel_sol  =         0.00000000
  ---------------------------------------------------
  free energy    TOTEN  =       707.47951253 eV

  energy without entropy =      707.48825844  energy(sigma->0) =      707.48388548


--------------------------------------------------------------------------------------------------------




--------------------------------------- Iteration      1(   2)  ---------------------------------------


     EDDAV:  cpu time    6.8805: real time    7.4532
       DOS:  cpu time    0.0008: real time    0.0009
    --------------------------------------------
      LOOP:  cpu time    6.8813: real time    7.4541

 eigenvalue-minimisations  :  3270
 total energy-change (2. order) :-0.7124319E+03  (-0.6856148E+03)
 number of electron      82.0000000 magnetization 
 augmentation part       82.0000000 magnetization 

 Free energy of the ion-electron system (eV)
  ---------------------------------------------------
  alpha Z        PSCENC =        61.93168770
  Ewald energy   TEWEN  =    256722.51603457
  -Hartree energ DENC   =   -260681.10496994
  -exchange      EXHF   =         0.00000000
  -V(xc)+E(xc)   XCENC  =      -254.16566489
  PAW double counting   =      4183.86841685    -3631.36502166
  entropy T*S    EENTRO =        -0.00369576
  eigenvalues    EBANDS =      -983.43281350
  atomic energy  EATOM  =      4576.80364952
  Solvation  Ediel_sol  =         0.00000000
  ---------------------------------------------------
  free energy    TOTEN  =        -4.95237710 eV

  energy without entropy =       -4.94868135  energy(sigma->0) =       -4.95052922


--------------------------------------------------------------------------------------------------------




--------------------------------------- Iteration      1(   3)  ---------------------------------------


     EDDAV:  cpu time    6.4455: real time    6.9396
       DOS:  cpu time    0.0014: real time    0.0017
    --------------------------------------------
      LOOP:  cpu time    6.4469: real time    6.9412

 eigenvalue-minimisations  :  2800
 total energy-change (2. order) :-0.1271533E+03  (-0.1263218E+03)
 number of electron      82.0000000 magnetization 
 augmentation part       82.0000000 magnetization 

 Free energy of the ion-electron system (eV)
  ---------------------------------------------------
  alpha Z        PSCENC =        61.93168770
  Ewald energy   TEWEN  =    256722.51603457
  -Hartree energ DENC   =   -260681.10496994
  -exchange      EXHF   =         0.00000000
  -V(xc)+E(xc)   XCENC  =      -254.16566489
  PAW double counting   =      4183.86841685    -3631.36502166
  entropy T*S    EENTRO =        -0.00176219
  eigenvalues    EBANDS =     -1110.58804601
  atomic energy  EATOM  =      4576.80364952
  Solvation  Ediel_sol  =         0.00000000
  ---------------------------------------------------
  free energy    TOTEN  =      -132.10567604 eV

  energy without entropy =     -132.10391385  energy(sigma->0) =     -132.10479495


--------------------------------------------------------------------------------------------------------




--------------------------------------- Iteration      1(   4)  ---------------------------------------


     EDDAV:  cpu time    6.4616: real time    6.9487
       DOS:  cpu time    0.0008: real time    0.0010
    --------------------------------------------
      LOOP:  cpu time    6.4625: real time    6.9497

 eigenvalue-minimisations  :  2870
 total energy-change (2. order) :-0.3277910E+01  (-0.3269583E+01)
 number of electron      82.0000000 magnetization 
 augmentation part       82.0000000 magnetization 

 Free energy of the ion-electron system (eV)
  ---------------------------------------------------
  alpha Z        PSCENC =        61.93168770
  Ewald energy   TEWEN  =    256722.51603457
  -Hartree energ DENC   =   -260681.10496994
  -exchange      EXHF   =         0.00000000
  -V(xc)+E(xc)   XCENC  =      -254.16566489
  PAW double counting   =      4183.86841685    -3631.36502166
  entropy T*S    EENTRO =        -0.00162756
  eigenvalues    EBANDS =     -1113.86609095
  atomic energy  EATOM  =      4576.80364952
  Solvation  Ediel_sol  =         0.00000000
  ---------------------------------------------------
  free energy    TOTEN  =      -135.38358635 eV

  energy without entropy =     -135.38195880  energy(sigma->0) =     -135.38277258


--------------------------------------------------------------------------------------------------------




--------------------------------------- Iteration      1(   5)  ---------------------------------------


     EDDAV:  cpu time    6.4018: real time    6.9708
       DOS:  cpu time    0.0009: real time    0.0013
    CHARGE:  cpu time    0.4343: real time    0.4988
    MIXING:  cpu time    0.0037: real time    0.0094
    --------------------------------------------
      LOOP:  cpu time    6.8407: real time    7.4803

 eigenvalue-minimisations  :  2880
 total energy-change (2. order) :-0.6431970E-01  (-0.6427988E-01)
 number of electron      82.0000015 magnetization 
 augmentation part        8.0166851 magnetization 

 Broyden mixing:
  rms(total) = 0.23138E+01    rms(broyden)= 0.23132E+01
  rms(prec ) = 0.23295E+01
  weight for this iteration     100.00

 Free energy of the ion-electron system (eV)
  ---------------------------------------------------
  alpha Z        PSCENC =        61.93168770
  Ewald energy   TEWEN  =    256722.51603457
  -Hartree energ DENC   =   -260681.10496994
  -exchange      EXHF   =         0.00000000
  -V(xc)+E(xc)   XCENC  =      -254.16566489
  PAW double counting   =      4183.86841685    -3631.36502166
  entropy T*S    EENTRO =        -0.00162413
  eigenvalues    EBANDS =     -1113.93041408
  atomic energy  EATOM  =      4576.80364952
  Solvation  Ediel_sol  =         0.00000000
  ---------------------------------------------------
  free energy    TOTEN  =      -135.44790605 eV

  energy without entropy =     -135.44628193  energy(sigma->0) =     -135.44709399


--------------------------------------------------------------------------------------------------------




--------------------------------------- Iteration      1(   6)  ---------------------------------------


    POTLOK:  cpu time    0.1298: real time    0.1658
    SETDIJ:  cpu time    0.1661: real time    0.1921
     EDDAV:  cpu time    6.6661: real time    7.1921
       DOS:  cpu time    0.0010: real time    0.0010
    CHARGE:  cpu time    0.6329: real time    0.6342
    MIXING:  cpu time    0.0129: real time    0.0130
    --------------------------------------------
      LOOP:  cpu time    7.6088: real time    8.1981

 eigenvalue-minimisations  :  2715
 total energy-change (2. order) : 0.1638320E+02  (-0.7762217E+01)
 number of electron      82.0000017 magnetization 
 augmentation part        6.6139713 magnetization 

 Broyden mixing:
  rms(total) = 0.72773E+00    rms(broyden)= 0.72664E+00
  rms(prec ) = 0.72856E+00
  weight for this iteration     100.00

 eigenvalues of (default mixing * dielectric matrix)
  average eigenvalue GAMMA=   0.8555
  0.8555

 Free energy of the ion-electron system (eV)
  ---------------------------------------------------
  alpha Z        PSCENC =        61.93168770
  Ewald energy   TEWEN  =    256722.51603457
  -Hartree energ DENC   =   -260892.31587574
  -exchange      EXHF   =         0.00000000
  -V(xc)+E(xc)   XCENC  =      -240.86060148
  PAW double counting   =      4926.17016568    -4377.08016506
  entropy T*S    EENTRO =        -0.00079680
  eigenvalues    EBANDS =      -896.22879990
  atomic energy  EATOM  =      4576.80364952
  Solvation  Ediel_sol  =         0.00000000
  ---------------------------------------------------
  free energy    TOTEN  =      -119.06470151 eV

  energy without entropy =     -119.06390471  energy(sigma->0) =     -119.06430311


--------------------------------------------------------------------------------------------------------




--------------------------------------- Iteration      1(   7)  ---------------------------------------


    POTLOK:  cpu time    0.1397: real time    0.1471
    SETDIJ:  cpu time    0.1502: real time    0.1532
     EDDAV:  cpu time    5.6608: real time    5.8849
       DOS:  cpu time    0.0009: real time    0.0010
    CHARGE:  cpu time    0.4598: real time    0.4842
    MIXING:  cpu time    0.0070: real time    0.0070
    --------------------------------------------
      LOOP:  cpu time    6.4184: real time    6.6775

 eigenvalue-minimisations  :  2575
 total energy-change (2. order) : 0.1857645E-01  (-0.1882535E+00)
 number of electron      82.0000018 magnetization 
 augmentation part        6.6164276 magnetization 

 Broyden mixing:
  rms(total) = 0.47548E+00    rms(broyden)= 0.47545E+00
  rms(prec ) = 0.47683E+00
  weight for this iteration     100.00

 eigenvalues of (default mixing * dielectric matrix)
  average eigenvalue GAMMA=   1.7039
  1.0050  2.4028

 Free energy of the ion-electron system (eV)
  ---------------------------------------------------
  alpha Z        PSCENC =        61.93168770
  Ewald energy   TEWEN  =    256722.51603457
  -Hartree energ DENC   =   -260897.48627007
  -exchange      EXHF   =         0.00000000
  -V(xc)+E(xc)   XCENC  =      -240.40286000
  PAW double counting   =      5151.57147780    -4602.12965877
  entropy T*S    EENTRO =        -0.00080297
  eigenvalues    EBANDS =      -891.84938285
  atomic energy  EATOM  =      4576.80364952
  Solvation  Ediel_sol  =         0.00000000
  ---------------------------------------------------
  free energy    TOTEN  =      -119.04612506 eV

  energy without entropy =     -119.04532209  energy(sigma->0) =     -119.04572358


--------------------------------------------------------------------------------------------------------




--------------------------------------- Iteration      1(   8)  ---------------------------------------


    POTLOK:  cpu time    0.1117: real time    0.1120
    SETDIJ:  cpu time    0.1538: real time    0.1543
     EDDAV:  cpu time    6.7980: real time    7.0442
       DOS:  cpu time    0.0009: real time    0.0013
    CHARGE:  cpu time    0.4733: real time    0.4965
    MIXING:  cpu time    0.0083: real time    0.0083
    --------------------------------------------
      LOOP:  cpu time    7.5460: real time    7.8167

 eigenvalue-minimisations  :  2905
 total energy-change (2. order) : 0.8977867E-01  (-0.5987936E-01)
 number of electron      82.0000018 magnetization 
 augmentation part        6.6941079 magnetization 

 Broyden mixing:
  rms(total) = 0.11035E+00    rms(broyden)= 0.11030E+00
  rms(prec ) = 0.11135E+00
  weight for this iteration     100.00

 eigenvalues of (default mixing * dielectric matrix)
  average eigenvalue GAMMA=   1.3664
  2.4885  0.9605  0.6501

 Free energy of the ion-electron system (eV)
  ---------------------------------------------------
  alpha Z        PSCENC =        61.93168770
  Ewald energy   TEWEN  =    256722.51603457
  -Hartree energ DENC   =   -260910.36131723
  -exchange      EXHF   =         0.00000000
  -V(xc)+E(xc)   XCENC  =      -239.25050587
  PAW double counting   =      5566.59139519    -5016.79069518
  entropy T*S    EENTRO =        -0.00083081
  eigenvalues    EBANDS =      -880.39576428
  atomic energy  EATOM  =      4576.80364952
  Solvation  Ediel_sol  =         0.00000000
  ---------------------------------------------------
  free energy    TOTEN  =      -118.95634639 eV

  energy without entropy =     -118.95551558  energy(sigma->0) =     -118.95593098


--------------------------------------------------------------------------------------------------------




--------------------------------------- Iteration      1(   9)  ---------------------------------------


    POTLOK:  cpu time    0.1181: real time    0.1224
    SETDIJ:  cpu time    0.1570: real time    0.1638
     EDDAV:  cpu time    8.0370: real time    8.2624
       DOS:  cpu time    0.0008: real time    0.0008
    CHARGE:  cpu time    0.4967: real time    0.4974
    MIXING:  cpu time    0.0058: real time    0.0058
    --------------------------------------------
      LOOP:  cpu time    8.8156: real time    9.0527

 eigenvalue-minimisations  :  2910
 total energy-change (2. order) : 0.2433685E-01  (-0.6239258E-02)
 number of electron      82.0000018 magnetization 
 augmentation part        6.6646424 magnetization 

 Broyden mixing:
  rms(total) = 0.56169E-01    rms(broyden)= 0.56163E-01
  rms(prec ) = 0.57164E-01
  weight for this iteration     100.00

 eigenvalues of (default mixing * dielectric matrix)
  average eigenvalue GAMMA=   1.3374
  2.4978  0.9980  0.9269  0.9269

 Free energy of the ion-electron system (eV)
  ---------------------------------------------------
  alpha Z        PSCENC =        61.93168770
  Ewald energy   TEWEN  =    256722.51603457
  -Hartree energ DENC   =   -260917.00643290
  -exchange      EXHF   =         0.00000000
  -V(xc)+E(xc)   XCENC  =      -238.87998948
  PAW double counting   =      5576.27263272    -5026.55358751
  entropy T*S    EENTRO =        -0.00083120
  eigenvalues    EBANDS =      -874.01517296
  atomic energy  EATOM  =      4576.80364952
  Solvation  Ediel_sol  =         0.00000000
  ---------------------------------------------------
  free energy    TOTEN  =      -118.93200954 eV

  energy without entropy =     -118.93117833  energy(sigma->0) =     -118.93159394


--------------------------------------------------------------------------------------------------------




--------------------------------------- Iteration      1(  10)  ---------------------------------------


    POTLOK:  cpu time    0.1590: real time    0.1593
    SETDIJ:  cpu time    0.1637: real time    0.1639
     EDDAV:  cpu time    6.7253: real time    6.7780
       DOS:  cpu time    0.0010: real time    0.0010
    CHARGE:  cpu time    0.4823: real time    0.5038
    MIXING:  cpu time    0.0162: real time    0.0163
    --------------------------------------------
      LOOP:  cpu time    7.5476: real time    7.6222

 eigenvalue-minimisations  :  2680
 total energy-change (2. order) : 0.4371511E-02  (-0.3688621E-02)
 number of electron      82.0000018 magnetization 
 augmentation part        6.6454640 magnetization 

 Broyden mixing:
  rms(total) = 0.17737E-01    rms(broyden)= 0.17707E-01
  rms(prec ) = 0.19697E-01
  weight for this iteration     100.00

 eigenvalues of (default mixing * dielectric matrix)
  average eigenvalue GAMMA=   1.3831
  2.5623  1.8827  0.9777  0.7464  0.7464

 Free energy of the ion-electron system (eV)
  ---------------------------------------------------
  alpha Z        PSCENC =        61.93168770
  Ewald energy   TEWEN  =    256722.51603457
  -Hartree energ DENC   =   -260921.68184778
  -exchange      EXHF   =         0.00000000
  -V(xc)+E(xc)   XCENC  =      -238.70392881
  PAW double counting   =      5564.47051463    -5014.78874486
  entropy T*S    EENTRO =        -0.00083031
  eigenvalues    EBANDS =      -869.47417270
  atomic energy  EATOM  =      4576.80364952
  Solvation  Ediel_sol  =         0.00000000
  ---------------------------------------------------
  free energy    TOTEN  =      -118.92763803 eV

  energy without entropy =     -118.92680772  energy(sigma->0) =     -118.92722287


--------------------------------------------------------------------------------------------------------




--------------------------------------- Iteration      1(  11)  ---------------------------------------


    POTLOK:  cpu time    0.1214: real time    0.1262
    SETDIJ:  cpu time    0.1624: real time    0.1686
     EDDAV:  cpu time    6.5281: real time    6.7679
       DOS:  cpu time    0.0009: real time    0.0009
    CHARGE:  cpu time    0.4683: real time    0.4756
    MIXING:  cpu time    0.0065: real time    0.0065
    --------------------------------------------
      LOOP:  cpu time    7.2876: real time    7.5457

 eigenvalue-minimisations  :  2920
 total energy-change (2. order) : 0.1315497E-02  (-0.6042920E-03)
 number of electron      82.0000018 magnetization 
 augmentation part        6.6369236 magnetization 

 Broyden mixing:
  rms(total) = 0.20023E-01    rms(broyden)= 0.20017E-01
  rms(prec ) = 0.21533E-01
  weight for this iteration     100.00

 eigenvalues of (default mixing * dielectric matrix)
  average eigenvalue GAMMA=   1.4796
  2.6509  2.5114  0.9807  0.9807  0.8768  0.8768

 Free energy of the ion-electron system (eV)
  ---------------------------------------------------
  alpha Z        PSCENC =        61.93168770
  Ewald energy   TEWEN  =    256722.51603457
  -Hartree energ DENC   =   -260926.66066508
  -exchange      EXHF   =         0.00000000
  -V(xc)+E(xc)   XCENC  =      -238.56871569
  PAW double counting   =      5549.82719354    -5000.17698759
  entropy T*S    EENTRO =        -0.00083161
  eigenvalues    EBANDS =      -864.59768789
  atomic energy  EATOM  =      4576.80364952
  Solvation  Ediel_sol  =         0.00000000
  ---------------------------------------------------
  free energy    TOTEN  =      -118.92632253 eV

  energy without entropy =     -118.92549092  energy(sigma->0) =     -118.92590672


--------------------------------------------------------------------------------------------------------




--------------------------------------- Iteration      1(  12)  ---------------------------------------


    POTLOK:  cpu time    0.1134: real time    0.1156
    SETDIJ:  cpu time    0.1748: real time    0.1751
     EDDAV:  cpu time    7.2035: real time    7.6973
       DOS:  cpu time    0.0008: real time    0.0016
    CHARGE:  cpu time    0.4450: real time    0.4507
    MIXING:  cpu time    0.0065: real time    0.0065
    --------------------------------------------
      LOOP:  cpu time    7.9440: real time    8.4468

 eigenvalue-minimisations  :  3365
 total energy-change (2. order) : 0.2712693E-02  (-0.2437205E-03)
 number of electron      82.0000018 magnetization 
 augmentation part        6.6401277 magnetization 

 Broyden mixing:
  rms(total) = 0.10243E-01    rms(broyden)= 0.10241E-01
  rms(prec ) = 0.12497E-01
  weight for this iteration     100.00

 eigenvalues of (default mixing * dielectric matrix)
  average eigenvalue GAMMA=   1.4062
  2.8537  2.4678  0.9711  0.9538  0.9538  0.8214  0.8214

 Free energy of the ion-electron system (eV)
  ---------------------------------------------------
  alpha Z        PSCENC =        61.93168770
  Ewald energy   TEWEN  =    256722.51603457
  -Hartree energ DENC   =   -260929.84690043
  -exchange      EXHF   =         0.00000000
  -V(xc)+E(xc)   XCENC  =      -238.58405750
  PAW double counting   =      5539.16704970    -4989.51682045
  entropy T*S    EENTRO =        -0.00083210
  eigenvalues    EBANDS =      -861.39342085
  atomic energy  EATOM  =      4576.80364952
  Solvation  Ediel_sol  =         0.00000000
  ---------------------------------------------------
  free energy    TOTEN  =      -118.92360984 eV

  energy without entropy =     -118.92277774  energy(sigma->0) =     -118.92319379


--------------------------------------------------------------------------------------------------------




--------------------------------------- Iteration      1(  13)  ---------------------------------------


    POTLOK:  cpu time    0.1185: real time    0.1209
    SETDIJ:  cpu time    0.1960: real time    0.2060
     EDDAV:  cpu time    6.7865: real time    7.1542
       DOS:  cpu time    0.0008: real time    0.0008
    CHARGE:  cpu time    0.4637: real time    0.6031
    MIXING:  cpu time    0.0052: real time    0.0056
    --------------------------------------------
      LOOP:  cpu time    7.5707: real time    8.0905

 eigenvalue-minimisations  :  2995
 total energy-change (2. order) : 0.1606312E-02  (-0.3205785E-03)
 number of electron      82.0000018 magnetization 
 augmentation part        6.6447385 magnetization 

 Broyden mixing:
  rms(total) = 0.75678E-02    rms(broyden)= 0.75608E-02
  rms(prec ) = 0.10106E-01
  weight for this iteration     100.00

 eigenvalues of (default mixing * dielectric matrix)
  average eigenvalue GAMMA=   1.4565
  2.9929  2.4543  1.3122  1.3122  0.8506  0.8506  0.9395  0.9395

 Free energy of the ion-electron system (eV)
  ---------------------------------------------------
  alpha Z        PSCENC =        61.93168770
  Ewald energy   TEWEN  =    256722.51603457
  -Hartree energ DENC   =   -260932.53647099
  -exchange      EXHF   =         0.00000000
  -V(xc)+E(xc)   XCENC  =      -238.61192157
  PAW double counting   =      5537.50969824    -4987.85539401
  entropy T*S    EENTRO =        -0.00083397
  eigenvalues    EBANDS =      -858.67845302
  atomic energy  EATOM  =      4576.80364952
  Solvation  Ediel_sol  =         0.00000000
  ---------------------------------------------------
  free energy    TOTEN  =      -118.92200352 eV

  energy without entropy =     -118.92116955  energy(sigma->0) =     -118.92158654


--------------------------------------------------------------------------------------------------------




--------------------------------------- Iteration      1(  14)  ---------------------------------------


    POTLOK:  cpu time    0.1404: real time    0.1618
    SETDIJ:  cpu time    0.1709: real time    0.1720
     EDDAV:  cpu time    6.4849: real time    6.8672
       DOS:  cpu time    0.0010: real time    0.0018
    CHARGE:  cpu time    0.4909: real time    0.4982
    MIXING:  cpu time    0.0059: real time    0.0059
    --------------------------------------------
      LOOP:  cpu time    7.2940: real time    7.7070

 eigenvalue-minimisations  :  3005
 total energy-change (2. order) : 0.2766778E-02  (-0.2450176E-03)
 number of electron      82.0000018 magnetization 
 augmentation part        6.6464535 magnetization 

 Broyden mixing:
  rms(total) = 0.91191E-02    rms(broyden)= 0.91174E-02
  rms(prec ) = 0.10793E-01
  weight for this iteration     100.00

 eigenvalues of (default mixing * dielectric matrix)
  average eigenvalue GAMMA=   1.5722
  3.7445  2.4351  2.4351  0.9809  0.9809  0.9692  0.9692  0.8172  0.8172

 Free energy of the ion-electron system (eV)
  ---------------------------------------------------
  alpha Z        PSCENC =        61.93168770
  Ewald energy   TEWEN  =    256722.51603457
  -Hartree energ DENC   =   -260938.91370380
  -exchange      EXHF   =         0.00000000
  -V(xc)+E(xc)   XCENC  =      -238.63139927
  PAW double counting   =      5537.69360473    -4988.03844390
  entropy T*S    EENTRO =        -0.00083454
  eigenvalues    EBANDS =      -852.27983175
  atomic energy  EATOM  =      4576.80364952
  Solvation  Ediel_sol  =         0.00000000
  ---------------------------------------------------
  free energy    TOTEN  =      -118.91923674 eV

  energy without entropy =     -118.91840220  energy(sigma->0) =     -118.91881947


--------------------------------------------------------------------------------------------------------




--------------------------------------- Iteration      1(  15)  ---------------------------------------


    POTLOK:  cpu time    0.1189: real time    0.1193
    SETDIJ:  cpu time    0.1553: real time    0.1576
     EDDAV:  cpu time    8.0584: real time    8.6510
       DOS:  cpu time    0.0010: real time    0.0009
    CHARGE:  cpu time    0.5262: real time    0.5299
    MIXING:  cpu time    0.0285: real time    0.0285
    --------------------------------------------
      LOOP:  cpu time    8.8882: real time    9.4873

 eigenvalue-minimisations  :  3860
 total energy-change (2. order) : 0.2707789E-02  (-0.2331445E-03)
 number of electron      82.0000018 magnetization 
 augmentation part        6.6468293 magnetization 

 Broyden mixing:
  rms(total) = 0.98712E-02    rms(broyden)= 0.98704E-02
  rms(prec ) = 0.10955E-01
  weight for this iteration     100.00

 eigenvalues of (default mixing * dielectric matrix)
  average eigenvalue GAMMA=   1.6402
  4.6557  2.6435  2.3269  1.1279  1.1279  0.8575  0.8575  0.9936  0.9936  0.8175

 Free energy of the ion-electron system (eV)
  ---------------------------------------------------
  alpha Z        PSCENC =        61.93168770
  Ewald energy   TEWEN  =    256722.51603457
  -Hartree energ DENC   =   -260946.83423655
  -exchange      EXHF   =         0.00000000
  -V(xc)+E(xc)   XCENC  =      -238.63429286
  PAW double counting   =      5538.59889537    -4988.94558641
  entropy T*S    EENTRO =        -0.00083573
  eigenvalues    EBANDS =      -844.35184458
  atomic energy  EATOM  =      4576.80364952
  Solvation  Ediel_sol  =         0.00000000
  ---------------------------------------------------
  free energy    TOTEN  =      -118.91652896 eV

  energy without entropy =     -118.91569323  energy(sigma->0) =     -118.91611109


--------------------------------------------------------------------------------------------------------




--------------------------------------- Iteration      1(  16)  ---------------------------------------


    POTLOK:  cpu time    0.1064: real time    0.1066
    SETDIJ:  cpu time    0.1191: real time    0.1192
     EDDAV:  cpu time    7.1343: real time    7.3111
       DOS:  cpu time    0.0009: real time    0.0009
    CHARGE:  cpu time    0.4931: real time    0.4940
    MIXING:  cpu time    0.0049: real time    0.0049
    --------------------------------------------
      LOOP:  cpu time    7.8587: real time    8.0366

 eigenvalue-minimisations  :  2840
 total energy-change (2. order) : 0.1358145E-02  (-0.1336459E-03)
 number of electron      82.0000018 magnetization 
 augmentation part        6.6451452 magnetization 

 Broyden mixing:
  rms(total) = 0.64397E-02    rms(broyden)= 0.64386E-02
  rms(prec ) = 0.76270E-02
  weight for this iteration     100.00

 eigenvalues of (default mixing * dielectric matrix)
  average eigenvalue GAMMA=   1.7592
  6.2308  2.7463  2.2817  1.5557  0.9561  0.9561  0.8678  0.8678  0.9761  0.9563
  0.9563

 Free energy of the ion-electron system (eV)
  ---------------------------------------------------
  alpha Z        PSCENC =        61.93168770
  Ewald energy   TEWEN  =    256722.51603457
  -Hartree energ DENC   =   -260951.93487506
  -exchange      EXHF   =         0.00000000
  -V(xc)+E(xc)   XCENC  =      -238.61892240
  PAW double counting   =      5538.22080362    -4988.56911803
  entropy T*S    EENTRO =        -0.00083594
  eigenvalues    EBANDS =      -839.26359478
  atomic energy  EATOM  =      4576.80364952
  Solvation  Ediel_sol  =         0.00000000
  ---------------------------------------------------
  free energy    TOTEN  =      -118.91517081 eV

  energy without entropy =     -118.91433487  energy(sigma->0) =     -118.91475284


--------------------------------------------------------------------------------------------------------




--------------------------------------- Iteration      1(  17)  ---------------------------------------


    POTLOK:  cpu time    0.1243: real time    0.1251
    SETDIJ:  cpu time    0.1514: real time    0.1610
     EDDAV:  cpu time    7.6728: real time    7.7721
       DOS:  cpu time    0.0009: real time    0.0010
    CHARGE:  cpu time    0.5001: real time    0.5092
    MIXING:  cpu time    0.0083: real time    0.0085
    --------------------------------------------
      LOOP:  cpu time    8.4579: real time    8.5767

 eigenvalue-minimisations  :  3530
 total energy-change (2. order) : 0.1769513E-02  (-0.1160910E-03)
 number of electron      82.0000018 magnetization 
 augmentation part        6.6436108 magnetization 

 Broyden mixing:
  rms(total) = 0.32139E-02    rms(broyden)= 0.32119E-02
  rms(prec ) = 0.45681E-02
  weight for this iteration     100.00

 eigenvalues of (default mixing * dielectric matrix)
  average eigenvalue GAMMA=   1.9743
  7.9652  2.8024  2.6772  2.6772  1.0238  1.0238  0.8580  0.8580  0.9756  0.9756
  0.9274  0.9274

 Free energy of the ion-electron system (eV)
  ---------------------------------------------------
  alpha Z        PSCENC =        61.93168770
  Ewald energy   TEWEN  =    256722.51603457
  -Hartree energ DENC   =   -260960.13751200
  -exchange      EXHF   =         0.00000000
  -V(xc)+E(xc)   XCENC  =      -238.60083461
  PAW double counting   =      5538.16589504    -4988.51288280
  entropy T*S    EENTRO =        -0.00083603
  eigenvalues    EBANDS =      -831.07860268
  atomic energy  EATOM  =      4576.80364952
  Solvation  Ediel_sol  =         0.00000000
  ---------------------------------------------------
  free energy    TOTEN  =      -118.91340130 eV

  energy without entropy =     -118.91256526  energy(sigma->0) =     -118.91298328


--------------------------------------------------------------------------------------------------------




--------------------------------------- Iteration      1(  18)  ---------------------------------------


    POTLOK:  cpu time    0.1132: real time    0.1228
    SETDIJ:  cpu time    0.1566: real time    0.1645
     EDDAV:  cpu time    8.2535: real time    8.6772
       DOS:  cpu time    0.0010: real time    0.0014
    CHARGE:  cpu time    0.4532: real time    0.4917
    MIXING:  cpu time    0.0053: real time    0.0069
    --------------------------------------------
      LOOP:  cpu time    8.9828: real time    9.4646

 eigenvalue-minimisations  :  3150
 total energy-change (2. order) : 0.1266629E-02  (-0.8548190E-04)
 number of electron      82.0000018 magnetization 
 augmentation part        6.6422913 magnetization 

 Broyden mixing:
  rms(total) = 0.37704E-02    rms(broyden)= 0.37686E-02
  rms(prec ) = 0.46069E-02
  weight for this iteration     100.00

 eigenvalues of (default mixing * dielectric matrix)
  average eigenvalue GAMMA=   2.0286
  9.2759  3.3673  2.6957  2.4746  1.0908  1.0908  0.8480  0.8480  1.0550  1.0550
  0.9523  0.9523  0.6657

 Free energy of the ion-electron system (eV)
  ---------------------------------------------------
  alpha Z        PSCENC =        61.93168770
  Ewald energy   TEWEN  =    256722.51603457
  -Hartree energ DENC   =   -260966.25409210
  -exchange      EXHF   =         0.00000000
  -V(xc)+E(xc)   XCENC  =      -238.58922822
  PAW double counting   =      5537.99232231    -4988.33860995
  entropy T*S    EENTRO =        -0.00083579
  eigenvalues    EBANDS =      -824.97306271
  atomic energy  EATOM  =      4576.80364952
  Solvation  Ediel_sol  =         0.00000000
  ---------------------------------------------------
  free energy    TOTEN  =      -118.91213467 eV

  energy without entropy =     -118.91129888  energy(sigma->0) =     -118.91171678


--------------------------------------------------------------------------------------------------------




--------------------------------------- Iteration      1(  19)  ---------------------------------------


    POTLOK:  cpu time    0.1276: real time    0.1292
    SETDIJ:  cpu time    0.1576: real time    0.1660
     EDDAV:  cpu time    8.1153: real time    8.4162
       DOS:  cpu time    0.0010: real time    0.0008
    CHARGE:  cpu time    0.4764: real time    0.4772
    MIXING:  cpu time    0.0124: real time    0.0124
    --------------------------------------------
      LOOP:  cpu time    8.8903: real time    9.2018

 eigenvalue-minimisations  :  3940
 total energy-change (2. order) : 0.6233710E-03  (-0.5952053E-04)
 number of electron      82.0000018 magnetization 
 augmentation part        6.6427169 magnetization 

 Broyden mixing:
  rms(total) = 0.20866E-02    rms(broyden)= 0.20849E-02
  rms(prec ) = 0.29506E-02
  weight for this iteration     100.00

 eigenvalues of (default mixing * dielectric matrix)
  average eigenvalue GAMMA=   2.1767
 10.7574  4.6575  2.7862  2.4108  1.2024  1.2024  1.0061  1.0061  0.8489  0.8489
  0.9106  0.9106  0.9628  0.9628

 Free energy of the ion-electron system (eV)
  ---------------------------------------------------
  alpha Z        PSCENC =        61.93168770
  Ewald energy   TEWEN  =    256722.51603457
  -Hartree energ DENC   =   -260971.88530654
  -exchange      EXHF   =         0.00000000
  -V(xc)+E(xc)   XCENC  =      -238.59673731
  PAW double counting   =      5538.11441402    -4988.45950288
  entropy T*S    EENTRO =        -0.00083561
  eigenvalues    EBANDS =      -819.33491475
  atomic energy  EATOM  =      4576.80364952
  Solvation  Ediel_sol  =         0.00000000
  ---------------------------------------------------
  free energy    TOTEN  =      -118.91151130 eV

  energy without entropy =     -118.91067568  energy(sigma->0) =     -118.91109349


--------------------------------------------------------------------------------------------------------




--------------------------------------- Iteration      1(  20)  ---------------------------------------


    POTLOK:  cpu time    0.1199: real time    0.1204
    SETDIJ:  cpu time    0.1671: real time    0.1676
     EDDAV:  cpu time    7.8571: real time    7.8727
       DOS:  cpu time    0.0020: real time    0.0020
    CHARGE:  cpu time    0.4710: real time    0.4718
    MIXING:  cpu time    0.0208: real time    0.0208
    --------------------------------------------
      LOOP:  cpu time    8.6380: real time    8.6553

 eigenvalue-minimisations  :  3675
 total energy-change (2. order) : 0.1716206E-03  (-0.7708495E-04)
 number of electron      82.0000018 magnetization 
 augmentation part        6.6432151 magnetization 

 Broyden mixing:
  rms(total) = 0.28250E-02    rms(broyden)= 0.28232E-02
  rms(prec ) = 0.32623E-02
  weight for this iteration     100.00

 eigenvalues of (default mixing * dielectric matrix)
  average eigenvalue GAMMA=   2.4602
 14.0427  5.9404  2.8011  2.4204  1.6049  1.6049  1.0369  1.0369  0.8519  0.8519
  1.0107  1.0107  0.9948  0.9948  0.7005

 Free energy of the ion-electron system (eV)
  ---------------------------------------------------
  alpha Z        PSCENC =        61.93168770
  Ewald energy   TEWEN  =    256722.51603457
  -Hartree energ DENC   =   -260977.34813283
  -exchange      EXHF   =         0.00000000
  -V(xc)+E(xc)   XCENC  =      -238.60041431
  PAW double counting   =      5537.74752122    -4988.09083819
  entropy T*S    EENTRO =        -0.00083522
  eigenvalues    EBANDS =      -813.87001214
  atomic energy  EATOM  =      4576.80364952
  Solvation  Ediel_sol  =         0.00000000
  ---------------------------------------------------
  free energy    TOTEN  =      -118.91133968 eV

  energy without entropy =     -118.91050446  energy(sigma->0) =     -118.91092207


--------------------------------------------------------------------------------------------------------




--------------------------------------- Iteration      1(  21)  ---------------------------------------


    POTLOK:  cpu time    0.1199: real time    0.1205
    SETDIJ:  cpu time    0.1692: real time    0.1694
     EDDAV:  cpu time    6.8574: real time    6.8775
       DOS:  cpu time    0.0013: real time    0.0017
    CHARGE:  cpu time    0.4867: real time    0.4877
    MIXING:  cpu time    0.0046: real time    0.0046
    --------------------------------------------
      LOOP:  cpu time    7.6390: real time    7.6614

 eigenvalue-minimisations  :  2860
 total energy-change (2. order) :-0.2013286E-03  (-0.7883031E-04)
 number of electron      82.0000018 magnetization 
 augmentation part        6.6433553 magnetization 

 Broyden mixing:
  rms(total) = 0.23733E-02    rms(broyden)= 0.23723E-02
  rms(prec ) = 0.27737E-02
  weight for this iteration     100.00

 eigenvalues of (default mixing * dielectric matrix)
  average eigenvalue GAMMA=   2.5773
 16.8734  6.5398  2.8097  2.4412  1.6893  1.6893  1.0349  1.0349  0.8539  0.8539
  1.0606  1.0606  0.9367  0.9367  0.7114  0.7114

 Free energy of the ion-electron system (eV)
  ---------------------------------------------------
  alpha Z        PSCENC =        61.93168770
  Ewald energy   TEWEN  =    256722.51603457
  -Hartree energ DENC   =   -260980.10017766
  -exchange      EXHF   =         0.00000000
  -V(xc)+E(xc)   XCENC  =      -238.59811562
  PAW double counting   =      5537.59318080    -4987.93778695
  entropy T*S    EENTRO =        -0.00083519
  eigenvalues    EBANDS =      -811.11917817
  atomic energy  EATOM  =      4576.80364952
  Solvation  Ediel_sol  =         0.00000000
  ---------------------------------------------------
  free energy    TOTEN  =      -118.91154101 eV

  energy without entropy =     -118.91070581  energy(sigma->0) =     -118.91112341


--------------------------------------------------------------------------------------------------------




--------------------------------------- Iteration      1(  22)  ---------------------------------------


    POTLOK:  cpu time    0.1168: real time    0.1179
    SETDIJ:  cpu time    0.1622: real time    0.1625
     EDDAV:  cpu time    6.5429: real time    6.5559
       DOS:  cpu time    0.0008: real time    0.0010
    CHARGE:  cpu time    0.4965: real time    0.4972
    MIXING:  cpu time    0.0072: real time    0.0073
    --------------------------------------------
      LOOP:  cpu time    7.3264: real time    7.3418

 eigenvalue-minimisations  :  2890
 total energy-change (2. order) :-0.3673046E-04  (-0.1439535E-04)
 number of electron      82.0000018 magnetization 
 augmentation part        6.6431160 magnetization 

 Broyden mixing:
  rms(total) = 0.18682E-02    rms(broyden)= 0.18677E-02
  rms(prec ) = 0.23061E-02
  weight for this iteration     100.00

 eigenvalues of (default mixing * dielectric matrix)
  average eigenvalue GAMMA=   2.4959
 17.6931  6.5331  2.8146  2.4358  1.6418  1.6418  1.0297  1.0297  1.1026  1.1026
  0.9486  0.9486  0.8540  0.8540  0.6720  0.6720  0.4554

 Free energy of the ion-electron system (eV)
  ---------------------------------------------------
  alpha Z        PSCENC =        61.93168770
  Ewald energy   TEWEN  =    256722.51603457
  -Hartree energ DENC   =   -260981.56321892
  -exchange      EXHF   =         0.00000000
  -V(xc)+E(xc)   XCENC  =      -238.59647674
  PAW double counting   =      5537.49044918    -4987.83618575
  entropy T*S    EENTRO =        -0.00083520
  eigenvalues    EBANDS =      -809.65668211
  atomic energy  EATOM  =      4576.80364952
  Solvation  Ediel_sol  =         0.00000000
  ---------------------------------------------------
  free energy    TOTEN  =      -118.91157774 eV

  energy without entropy =     -118.91074254  energy(sigma->0) =     -118.91116014


--------------------------------------------------------------------------------------------------------




--------------------------------------- Iteration      1(  23)  ---------------------------------------


    POTLOK:  cpu time    0.1181: real time    0.1185
    SETDIJ:  cpu time    0.1643: real time    0.1651
     EDDAV:  cpu time    6.9810: real time    7.0017
       DOS:  cpu time    0.0008: real time    0.0009
    CHARGE:  cpu time    0.4596: real time    0.4602
    MIXING:  cpu time    0.0057: real time    0.0058
    --------------------------------------------
      LOOP:  cpu time    7.7296: real time    7.7522

 eigenvalue-minimisations  :  2870
 total energy-change (2. order) :-0.4250334E-04  (-0.5908718E-05)
 number of electron      82.0000018 magnetization 
 augmentation part        6.6429909 magnetization 

 Broyden mixing:
  rms(total) = 0.11181E-02    rms(broyden)= 0.11176E-02
  rms(prec ) = 0.16995E-02
  weight for this iteration     100.00

 eigenvalues of (default mixing * dielectric matrix)
  average eigenvalue GAMMA=   2.7683
 21.5656  6.8468  2.9458  2.4416  2.2017  2.2017  1.2570  1.2570  1.0203  1.0203
  0.8504  0.8504  1.0324  1.0324  1.0247  0.8676  0.7065  0.7065

 Free energy of the ion-electron system (eV)
  ---------------------------------------------------
  alpha Z        PSCENC =        61.93168770
  Ewald energy   TEWEN  =    256722.51603457
  -Hartree energ DENC   =   -260982.47359412
  -exchange      EXHF   =         0.00000000
  -V(xc)+E(xc)   XCENC  =      -238.59535114
  PAW double counting   =      5537.58008686    -4987.92692855
  entropy T*S    EENTRO =        -0.00083517
  eigenvalues    EBANDS =      -808.74636991
  atomic energy  EATOM  =      4576.80364952
  Solvation  Ediel_sol  =         0.00000000
  ---------------------------------------------------
  free energy    TOTEN  =      -118.91162024 eV

  energy without entropy =     -118.91078506  energy(sigma->0) =     -118.91120265


--------------------------------------------------------------------------------------------------------




--------------------------------------- Iteration      1(  24)  ---------------------------------------


    POTLOK:  cpu time    0.1148: real time    0.1152
    SETDIJ:  cpu time    0.1526: real time    0.1528
     EDDAV:  cpu time    7.1366: real time    7.3784
       DOS:  cpu time    0.0009: real time    0.0010
    CHARGE:  cpu time    0.5067: real time    0.5150
    MIXING:  cpu time    0.0249: real time    0.0250
    --------------------------------------------
      LOOP:  cpu time    7.9364: real time    8.1875

 eigenvalue-minimisations  :  2760
 total energy-change (2. order) :-0.1658669E-03  (-0.6505672E-05)
 number of electron      82.0000018 magnetization 
 augmentation part        6.6428711 magnetization 

 Broyden mixing:
  rms(total) = 0.16662E-02    rms(broyden)= 0.16659E-02
  rms(prec ) = 0.20252E-02
  weight for this iteration     100.00

 eigenvalues of (default mixing * dielectric matrix)
  average eigenvalue GAMMA=   2.7133
 22.1771  6.8897  2.9579  2.5070  2.1597  2.1597  1.4778  1.4778  1.0263  1.0263
  0.8484  0.8484  1.0220  0.9907  0.9907  0.9046  0.7101  0.6893  0.6893

 Free energy of the ion-electron system (eV)
  ---------------------------------------------------
  alpha Z        PSCENC =        61.93168770
  Ewald energy   TEWEN  =    256722.51603457
  -Hartree energ DENC   =   -260984.13887671
  -exchange      EXHF   =         0.00000000
  -V(xc)+E(xc)   XCENC  =      -238.59478796
  PAW double counting   =      5537.56787307    -4987.91544422
  entropy T*S    EENTRO =        -0.00083498
  eigenvalues    EBANDS =      -807.08108710
  atomic energy  EATOM  =      4576.80364952
  Solvation  Ediel_sol  =         0.00000000
  ---------------------------------------------------
  free energy    TOTEN  =      -118.91178611 eV

  energy without entropy =     -118.91095113  energy(sigma->0) =     -118.91136862


--------------------------------------------------------------------------------------------------------




--------------------------------------- Iteration      1(  25)  ---------------------------------------


    POTLOK:  cpu time    0.1364: real time    0.1369
    SETDIJ:  cpu time    0.1735: real time    0.1742
     EDDAV:  cpu time    7.4128: real time    7.8620
       DOS:  cpu time    0.0011: real time    0.0014
    CHARGE:  cpu time    0.5150: real time    0.5159
    MIXING:  cpu time    0.0119: real time    0.0120
    --------------------------------------------
      LOOP:  cpu time    8.2508: real time    8.7024

 eigenvalue-minimisations  :  3225
 total energy-change (2. order) :-0.3616010E-04  (-0.2322596E-05)
 number of electron      82.0000018 magnetization 
 augmentation part        6.6431011 magnetization 

 Broyden mixing:
  rms(total) = 0.15828E-02    rms(broyden)= 0.15827E-02
  rms(prec ) = 0.19242E-02
  weight for this iteration     100.00

 eigenvalues of (default mixing * dielectric matrix)
  average eigenvalue GAMMA=   2.8481
 23.2684  7.6518  4.0323  2.8939  2.5634  2.5634  1.5860  1.5860  1.0179  1.0179
  0.9962  0.9962  0.8410  0.8410  0.9720  0.9720  0.8237  0.8237  0.7571  0.7571

 Free energy of the ion-electron system (eV)
  ---------------------------------------------------
  alpha Z        PSCENC =        61.93168770
  Ewald energy   TEWEN  =    256722.51603457
  -Hartree energ DENC   =   -260984.97136561
  -exchange      EXHF   =         0.00000000
  -V(xc)+E(xc)   XCENC  =      -238.59708869
  PAW double counting   =      5537.47677116    -4987.82374130
  entropy T*S    EENTRO =        -0.00083491
  eigenvalues    EBANDS =      -806.24693471
  atomic energy  EATOM  =      4576.80364952
  Solvation  Ediel_sol  =         0.00000000
  ---------------------------------------------------
  free energy    TOTEN  =      -118.91182227 eV

  energy without entropy =     -118.91098735  energy(sigma->0) =     -118.91140481


--------------------------------------------------------------------------------------------------------




--------------------------------------- Iteration      1(  26)  ---------------------------------------


    POTLOK:  cpu time    0.1206: real time    0.1216
    SETDIJ:  cpu time    0.1520: real time    0.1524
     EDDAV:  cpu time    7.8453: real time    7.9422
       DOS:  cpu time    0.0010: real time    0.0011
    CHARGE:  cpu time    0.4957: real time    0.4963
    MIXING:  cpu time    0.0205: real time    0.0207
    --------------------------------------------
      LOOP:  cpu time    8.6350: real time    8.7342

 eigenvalue-minimisations  :  3460
 total energy-change (2. order) :-0.1135480E-03  (-0.1225979E-04)
 number of electron      82.0000018 magnetization 
 augmentation part        6.6430595 magnetization 

 Broyden mixing:
  rms(total) = 0.16329E-02    rms(broyden)= 0.16327E-02
  rms(prec ) = 0.18293E-02
  weight for this iteration     100.00

 eigenvalues of (default mixing * dielectric matrix)
  average eigenvalue GAMMA=   2.8382
 23.6160  8.5574  4.7819  2.8515  2.3618  2.3618  1.6004  1.6004  1.0307  1.0307
  1.0900  1.0900  0.8606  0.8606  0.8056  0.8056  0.9780  0.9042  0.9042  0.7547
  0.7547

 Free energy of the ion-electron system (eV)
  ---------------------------------------------------
  alpha Z        PSCENC =        61.93168770
  Ewald energy   TEWEN  =    256722.51603457
  -Hartree energ DENC   =   -260989.39510496
  -exchange      EXHF   =         0.00000000
  -V(xc)+E(xc)   XCENC  =      -238.59763049
  PAW double counting   =      5537.34125875    -4987.68691826
  entropy T*S    EENTRO =        -0.00083449
  eigenvalues    EBANDS =      -801.82407816
  atomic energy  EATOM  =      4576.80364952
[...]
     29      -6.0086      2.00000
     30      -5.9200      2.00000
     31      -5.8109      2.00000
     32      -5.7759      2.00000
     33      -5.6862      2.00000
     34      -5.6677      2.00000
     35      -5.6208      2.00000
     36      -5.5281      2.00000
     37      -5.3926      2.00000
     38      -5.2651      2.00000
     39      -5.1826      2.00000
     40      -5.1188      2.00000
     41       0.5150      0.00000
     42       0.5411      0.00000
     43       2.3293      0.00000
     44       2.3603      0.00000
     45       4.2902      0.00000
     46       4.5562      0.00000
     47       4.9435      0.00000
     48       5.2968      0.00000
     49       5.3697      0.00000
     50       5.5029      0.00000
     51       5.5982      0.00000
     52       5.8098      0.00000
     53       5.8788      0.00000
     54       6.1057      0.00000
     55       6.1902      0.00000

 k-point    18 :       0.2308    0.2308    0.0000
  band No.  band energies     occupation 
      1     -20.4861      2.00000
      2     -20.4493      2.00000
      3     -20.4154      2.00000
      4     -20.3641      2.00000
      5     -20.3017      2.00000
      6     -20.2354      2.00000
      7     -20.1658      2.00000
      8     -20.1039      2.00000
      9     -20.0557      2.00000
     10     -20.0160      2.00000
     11      -8.0687      2.00000
     12      -8.0623      2.00000
     13      -8.0011      2.00000
     14      -7.9830      2.00000
     15      -7.9030      2.00000
     16      -7.8636      2.00000
     17      -7.7863      2.00000
     18      -7.7476      2.00000
     19      -7.6337      2.00000
     20      -7.4180      2.00000
     21      -7.2346      2.00000
     22      -6.9701      2.00000
     23      -6.7254      2.00000
     24      -6.4815      2.00000
     25      -6.2367      2.00000
     26      -6.1164      2.00000
     27      -6.0665      2.00000
     28      -6.0078      2.00000
     29      -5.9893      2.00000
     30      -5.9735      2.00000
     31      -5.8621      2.00000
     32      -5.8546      2.00000
     33      -5.8255      2.00000
     34      -5.7073      2.00000
     35      -5.5628      2.00000
     36      -5.4347      2.00000
     37      -5.3439      2.00000
     38      -5.2320      2.00000
     39      -5.0929      2.00000
     40      -4.9828      2.00000
     41      -0.5219      0.00000
     42      -0.4912      0.00000
     43       4.0240      0.00000
     44       4.0390      0.00000
     45       4.6078      0.00000
     46       4.6472      0.00000
     47       4.7129      0.00000
     48       4.8234      0.00000
     49       5.0001      0.00000
     50       5.2726      0.00000
     51       5.6325      0.00000
     52       6.0083      0.00000
     53       6.2629      0.00000
     54       6.3666      0.00000
     55       6.4722      0.00000

 k-point    19 :       0.3077    0.2308    0.0000
  band No.  band energies     occupation 
      1     -20.3013      2.00000
      2     -20.2630      2.00000
      3     -20.2443      2.00000
      4     -20.2165      2.00000
      5     -20.1814      2.00000
      6     -20.1437      2.00000
      7     -20.1016      2.00000
      8     -20.0658      2.00000
      9     -20.0368      2.00000
     10     -20.0092      2.00000
     11      -8.2718      2.00000
     12      -8.1876      2.00000
     13      -8.0630      2.00000
     14      -8.0244      2.00000
     15      -7.9654      2.00000
     16      -7.9285      2.00000
     17      -7.8845      2.00000
     18      -7.8081      2.00000
     19      -7.6664      2.00000
     20      -7.5198      2.00000
     21      -7.1275      2.00000
     22      -6.9900      2.00000
     23      -6.8592      2.00000
     24      -6.7125      2.00000
     25      -6.5348      2.00000
     26      -6.5177      2.00000
     27      -6.4296      2.00000
     28      -6.3673      2.00000
     29      -6.2912      2.00000
     30      -6.1420      2.00000
     31      -6.0591      2.00000
     32      -5.9826      2.00000
     33      -5.8528      2.00000
     34      -5.6887      2.00000
     35      -5.5561      2.00000
     36      -5.5019      2.00000
     37      -5.4111      2.00000
     38      -5.3288      2.00000
     39      -5.2415      2.00000
     40      -5.1429      2.00000
     41       0.4264      0.00000
     42       0.4552      0.00000
     43       3.2159      0.00000
     44       3.2440      0.00000
     45       4.9213      0.00000
     46       4.9463      0.00000
     47       5.0225      0.00000
     48       5.1694      0.00000
     49       5.3751      0.00000
     50       5.5101      0.00000
     51       5.5705      0.00000
     52       5.7513      0.00000
     53       6.0434      0.00000
     54       6.3420      0.00000
     55       6.6406      0.00000

 k-point    20 :       0.3846    0.2308    0.0000
  band No.  band energies     occupation 
      1     -20.2236      2.00000
      2     -20.1750      2.00000
      3     -20.1580      2.00000
      4     -20.1496      2.00000
      5     -20.1330      2.00000
      6     -20.1126      2.00000
      7     -20.0882      2.00000
      8     -20.0679      2.00000
      9     -20.0482      2.00000
     10     -20.0281      2.00000
     11      -8.3570      2.00000
     12      -8.2664      2.00000
     13      -8.1262      2.00000
     14      -7.9596      2.00000
     15      -7.8959      2.00000
     16      -7.8661      2.00000
     17      -7.8329      2.00000
     18      -7.8135      2.00000
     19      -7.7718      2.00000
     20      -7.7408      2.00000
     21      -6.9567      2.00000
     22      -6.8980      2.00000
     23      -6.8704      2.00000
     24      -6.8565      2.00000
     25      -6.7784      2.00000
     26      -6.7631      2.00000
     27      -6.7211      2.00000
     28      -6.5605      2.00000
     29      -6.3902      2.00000
     30      -6.2195      2.00000
     31      -5.9520      2.00000
     32      -5.9005      2.00000
     33      -5.7330      2.00000
     34      -5.7101      2.00000
     35      -5.5950      2.00000
     36      -5.5888      2.00000
     37      -5.4407      2.00000
     38      -5.3349      2.00000
     39      -5.2782      2.00000
     40      -5.2669      2.00000
     41       1.1282      0.00000
     42       1.1517      0.00000
     43       2.4695      0.00000
     44       2.5069      0.00000
     45       4.8405      0.00000
     46       4.8577      0.00000
     47       5.0455      0.00000
     48       5.2270      0.00000
     49       5.4987      0.00000
     50       5.6324      0.00000
     51       5.8550      0.00000
     52       5.9020      0.00000
     53       6.2454      0.00000
     54       6.2574      0.00000
     55       6.7111      0.00000

 k-point    21 :       0.3077    0.3077    0.0000
  band No.  band energies     occupation 
      1     -20.1979      2.00000
      2     -20.1430      2.00000
      3     -20.1269      2.00000
      4     -20.1222      2.00000
      5     -20.1090      2.00000
      6     -20.0935      2.00000
      7     -20.0775      2.00000
      8     -20.0627      2.00000
      9     -20.0472      2.00000
     10     -20.0321      2.00000
     11      -8.0017      2.00000
     12      -7.9950      2.00000
     13      -7.9229      2.00000
     14      -7.9097      2.00000
     15      -7.8126      2.00000
     16      -7.7888      2.00000
     17      -7.6815      2.00000
     18      -7.6002      2.00000
     19      -7.5350      2.00000
     20      -7.4859      2.00000
     21      -7.3681      2.00000
     22      -7.3052      2.00000
     23      -7.1803      2.00000
     24      -7.1288      2.00000
     25      -7.0137      2.00000
     26      -6.9771      2.00000
     27      -6.8664      2.00000
     28      -6.7957      2.00000
     29      -6.6929      2.00000
     30      -6.6580      2.00000
     31      -5.9470      2.00000
     32      -5.8917      2.00000
     33      -5.7232      2.00000
     34      -5.5904      2.00000
     35      -5.5260      2.00000
     36      -5.5018      2.00000
     37      -5.4521      2.00000
     38      -5.4447      2.00000
     39      -5.4097      2.00000
     40      -5.3096      2.00000
     41       1.2946      0.00000
     42       1.3186      0.00000
     43       3.0062      0.00000
     44       3.0482      0.00000
     45       3.9791      0.00000
     46       3.9982      0.00000
     47       5.7179      0.00000
     48       5.7231      0.00000
     49       5.7640      0.00000
     50       5.7904      0.00000
     51       5.7970      0.00000
     52       5.8898      0.00000
     53       6.1029      0.00000
     54       6.3765      0.00000
     55       6.8057      0.00000


--------------------------------------------------------------------------------------------------------


 soft charge-density along one line, spin component           1
         0         1         2         3         4         5         6         7         8         9
 total charge-density along one line
 
 pseudopotential strength for first ion, spin component:           1
 13.302 -16.273   0.000  -0.004   0.000  -0.000   0.005  -0.000
-16.273  19.935  -0.000   0.005  -0.000   0.000  -0.006   0.000
  0.000  -0.000  -9.795  -0.000   0.000  12.026   0.000  -0.000
 -0.004   0.005  -0.000  -9.798   0.000   0.000  12.030  -0.000
  0.000  -0.000   0.000   0.000  -9.795  -0.000  -0.000  12.026
 -0.000   0.000  12.026   0.000  -0.000 -14.669  -0.000   0.000
  0.005  -0.006   0.000  12.030  -0.000  -0.000 -14.674   0.000
 -0.000   0.000  -0.000  -0.000  12.026   0.000   0.000 -14.669
 total augmentation occupancy for first ion, spin component:           1
  2.688   0.404   0.000   0.011  -0.000   0.000  -0.000   0.000
  0.404   0.090  -0.000   0.010  -0.000  -0.000  -0.004   0.000
  0.000   0.000   2.162   0.000  -0.000   0.263   0.000   0.000
  0.011   0.010   0.000   2.149   0.000  -0.000   0.261   0.000
 -0.000  -0.000  -0.000   0.000   2.162  -0.000   0.000   0.263
  0.000  -0.000   0.263  -0.000   0.000   0.035   0.000   0.000
 -0.000  -0.004   0.000   0.261   0.000   0.000   0.037   0.000
 -0.000   0.000  -0.000   0.000   0.263   0.000   0.000   0.035


------------------------ aborting loop because EDIFF is reached ----------------------------------------


    CHARGE:  cpu time    0.4667: real time    0.4675
    FORLOC:  cpu time    0.0257: real time    0.0257
    FORNL :  cpu time    2.2956: real time    2.2994
    STRESS:  cpu time    5.4645: real time    5.4745
    FORCOR:  cpu time    0.1323: real time    0.1325
    FORHAR:  cpu time    0.0452: real time    0.0454
    MIXING:  cpu time    0.0089: real time    0.0089
    OFIELD:  cpu time    0.0001: real time    0.0001

  FORCE on cell =-STRESS in cart. coord.  units (eV):
  Direction    XX          YY          ZZ          XY          YZ          ZX
  --------------------------------------------------------------------------------------
  Alpha Z    61.93169    61.93169    61.93169
  Ewald  259113.18253259113.18494************    -0.00009     0.00007    -0.00173
  Hartree260051.64531260051.64449************    -0.00000     0.00000     0.00042
  E(xc)    -367.89486  -367.89498  -367.86257     0.00000     0.00000     0.00000
  Local  ************************519603.07178    -0.00012    -0.00005     0.00063
  n-local  -170.54220  -188.79564  -180.04116     3.15830    -1.17435     4.52725
  augment    68.27479    68.27421    68.08830     0.00018    -0.00000     0.00001
  Kinetic  1380.47161  1465.36281  1422.49826    -9.09864    -0.44881     2.47573
  Fock        0.00000     0.00000     0.00000     0.00000     0.00000     0.00000
  -------------------------------------------------------------------------------------
  Total       2.32914     2.32912    -1.07020     0.00000     0.00000    -0.00000
  in kB       5.88245     5.88242    -2.70289     0.00000     0.00000    -0.00000
  external pressure =        3.02 kB  Pullay stress =        0.00 kB


 VOLUME and BASIS-vectors are now :
 -----------------------------------------------------------------------------
  energy-cutoff  :      450.00
  volume of cell :      634.38
      direct lattice vectors                 reciprocal lattice vectors
     2.585139981 -1.492527023  0.000000000     0.386826248  0.000000000  0.000000000
     0.000000000  2.985054047  0.000000000     0.193413124  0.335002310  0.000000000
    -0.000000000  0.000000000 82.207404478    -0.000000000  0.000000000  0.012164354

  length of vectors
     2.985060408  2.985054047 82.207404478     0.386826248  0.386827072  0.012164354


 FORCES acting on ions
    electron-ion (+dipol)            ewald-force                    non-local-force                 convergence-correction
 -----------------------------------------------------------------------------------------------
   0.247E-04 -.486E-06 0.351E+04   -.238E-04 0.363E-05 -.351E+04   -.124E-16 -.347E-17 0.165E+01   0.770E-10 0.428E-10 -.402E-03
   0.106E-02 -.183E-02 0.273E+04   0.582E-04 -.103E-03 -.273E+04   0.620E-19 -.130E-17 -.162E-01   0.849E-09 -.142E-08 -.106E-03
   -.358E-07 0.353E-08 0.117E+04   -.201E-05 0.582E-06 -.117E+04   0.315E-18 0.542E-19 -.413E-01   -.416E-10 0.214E-10 0.604E-03
   0.106E-02 -.183E-02 0.390E+03   0.575E-04 -.102E-03 -.390E+03   0.345E-18 -.108E-18 -.499E-01   -.203E-08 0.343E-08 0.389E-03
   0.682E-07 -.535E-08 -.117E+04   -.203E-05 0.576E-06 0.117E+04   0.361E-18 -.542E-19 -.517E-01   0.451E-10 -.166E-10 -.660E-03
   0.106E-02 -.183E-02 -.195E+04   0.574E-04 -.102E-03 0.195E+04   0.228E-18 0.217E-18 -.538E-01   -.126E-09 0.182E-09 -.493E-03
   -.242E-04 0.472E-06 -.351E+04   0.185E-04 -.216E-05 0.351E+04   0.107E-16 0.000E+00 -.170E+01   -.601E-10 -.547E-10 0.309E-03
   -.106E-02 0.183E-02 0.195E+04   -.608E-04 0.102E-03 -.195E+04   0.264E-18 -.678E-20 -.387E-01   0.246E-09 -.416E-09 0.378E-03
   -.106E-02 0.183E-02 -.391E+03   -.604E-04 0.102E-03 0.391E+03   0.454E-18 -.542E-19 -.616E-01   0.190E-08 -.320E-08 -.379E-03
   -.106E-02 0.183E-02 -.273E+04   -.606E-04 0.102E-03 0.273E+04   0.111E-17 0.000E+00 -.111E+00   -.995E-09 0.165E-08 0.769E-05
   -.132E-05 -.176E-07 0.781E+03   0.190E-05 -.538E-06 -.781E+03   -.137E-18 0.000E+00 -.655E-01   0.269E-10 -.609E-11 0.713E-04
   -.144E-05 0.110E-06 -.352E+00   0.198E-05 -.562E-06 0.397E+00   0.106E-17 -.434E-18 -.670E-01   -.746E-11 0.100E-10 -.105E-05
   -.138E-05 0.122E-06 -.781E+03   0.184E-05 -.519E-06 0.781E+03   0.290E-18 0.867E-18 -.602E-01   -.431E-10 0.190E-10 -.904E-04
   0.440E-04 -.778E-04 0.104E+04   -.500E-04 0.878E-04 -.104E+04   0.143E-18 0.347E-17 -.118E+00   -.118E-09 0.311E-09 -.756E-04
   0.433E-04 -.773E-04 0.260E+03   -.490E-04 0.874E-04 -.260E+03   -.687E-18 0.867E-18 -.589E-01   -.254E-12 0.711E-10 0.107E-03
   0.431E-04 -.773E-04 -.521E+03   -.486E-04 0.873E-04 0.521E+03   0.196E-18 0.434E-18 -.717E-01   -.250E-11 -.493E-10 -.163E-03
   0.998E-04 -.401E-04 -.128E+04   -.100E-03 0.265E-04 0.128E+04   0.263E-17 0.000E+00 0.689E+00   -.724E-10 0.269E-09 0.127E-03
   -.103E-03 0.412E-04 0.128E+04   0.104E-03 -.275E-04 -.128E+04   0.287E-16 -.278E-16 -.810E+00   0.635E-10 -.259E-09 -.983E-04
   -.461E-04 0.775E-04 0.520E+03   0.520E-04 -.871E-04 -.520E+03   0.843E-18 -.434E-18 -.691E-01   0.284E-10 0.483E-11 0.135E-03
   -.459E-04 0.772E-04 -.261E+03   0.517E-04 -.867E-04 0.261E+03   0.793E-19 0.434E-18 -.652E-01   0.296E-11 -.679E-10 -.121E-03
   -.464E-04 0.773E-04 -.104E+04   0.526E-04 -.867E-04 0.104E+04   -.426E-18 0.000E+00 -.628E-02   0.117E-09 -.299E-09 0.517E-04
 -----------------------------------------------------------------------------------------------
   -.145E-04 0.864E-06 0.117E+01   0.319E-13 0.179E-14 -.227E-11   0.342E-16 -.273E-16 -.117E+01   -.141E-09 0.219E-09 -.410E-03
 
 
 POSITION                                       TOTAL-FORCE (eV/Angst)
 -----------------------------------------------------------------------------------
     -0.00000      0.00000     36.19032        -0.000000      0.000000      0.050262
      0.86171      1.49253     38.63952         0.000000     -0.000000      0.012405
     -0.00000      0.00000     43.54499        -0.000000      0.000000      0.030763
      0.86171      1.49253     46.00074        -0.000000      0.000000      0.026517
     -0.00000      0.00000     50.91578        -0.000000      0.000000      0.024563
      0.86171      1.49253     53.37310        -0.000000     -0.000000      0.026325
     -0.00000      0.00000     58.28650        -0.000000      0.000000      0.029223
      1.72343     -0.00000     41.09152        -0.000000      0.000000      0.029027
      1.72343     -0.00000     48.45846        -0.000000     -0.000000      0.019084
      1.72343     -0.00000     55.83113        -0.000000     -0.000000      0.024132
     -0.00000      0.00000     39.87041         0.000000      0.000000     -0.013935
     -0.00000      0.00000     47.23474         0.000000      0.000000     -0.022024
     -0.00000      0.00000     54.60683         0.000000      0.000000     -0.012753
      1.72343     -0.00000     37.41788        -0.000000      0.000000      0.001735
      1.72343     -0.00000     44.77744         0.000000      0.000000     -0.004438
      1.72343     -0.00000     52.15002         0.000000      0.000000     -0.032788
      1.72343     -0.00000     59.57330         0.000000      0.000000     -0.019398
      0.86171      1.49253     34.92349         0.000000      0.000000     -0.099964
      0.86171      1.49253     42.32370         0.000000      0.000000     -0.025768
      0.86171      1.49253     49.69210         0.000000      0.000000     -0.018389
      0.86171      1.49253     57.06576         0.000000      0.000000     -0.024577
 -----------------------------------------------------------------------------------
    total drift:                               -0.000014      0.000001     -0.000021


--------------------------------------------------------------------------------------------------------



  FREE ENERGIE OF THE ION-ELECTRON SYSTEM (eV)
  ---------------------------------------------------
  free  energy   TOTEN  =      -118.91225227 eV

  energy  without entropy=     -118.91141760  energy(sigma->0) =     -118.91183493
 


--------------------------------------------------------------------------------------------------------


    POTLOK:  cpu time    0.2867: real time    0.2875


--------------------------------------------------------------------------------------------------------


 stress matrix after NEB project (eV)
      2.32914      0.00000     -0.00000
      0.00000      2.32912      0.00000
     -0.00000      0.00000     -1.07020
  FORCES: max atom, RMS     0.099964    0.032502
  FORCE total and by dimension    0.148943    0.099964
  Stress total and by dimension    3.463385    2.329138
     LOOP+:  cpu time  345.7755: real time  356.7988
    4ORBIT:  cpu time    0.0000: real time    0.0000

 total amount of memory used by VASP MPI-rank0    98505. kBytes
=======================================================================

   base      :      30000. kBytes
   nonl-proj :      16181. kBytes
   fftplans  :      25300. kBytes
   grid      :      14022. kBytes
   one-center:         48. kBytes
   wavefun   :      12954. kBytes
 
  
  
 General timing and accounting informations for this job:
 ========================================================
  
                  Total CPU time used (sec):      352.672
                            User time (sec):      348.088
                          System time (sec):        4.583
                         Elapsed time (sec):      364.133
  
                   Maximum memory used (kb):      197892.
                   Average memory used (kb):           0.
  
                          Minor page faults:       303261
                          Major page faults:            0
                 Voluntary context switches:          390
