       N       E                     dE             d eps       ncg     rms          rms(c)
DAV:   1     0.496661920764E+03    0.49666E+03   -0.44941E+04  6280   0.136E+03
DAV:   2    -0.105315967307E+03   -0.60198E+03   -0.57610E+03  8032   0.263E+02
DAV:   3    -0.156089859714E+03   -0.50774E+02   -0.50497E+02  7408   0.826E+01
DAV:   4    -0.156691111008E+03   -0.60125E+00   -0.60031E+00  7384   0.984E+00
DAV:   5    -0.156699604105E+03   -0.84931E-02   -0.84906E-02  7520   0.115E+00    0.229E+01
DAV:   6    -0.141373715803E+03    0.15326E+02   -0.86453E+01  7488   0.320E+01    0.783E+00
DAV:   7    -0.141243049049E+03    0.13067E+00   -0.19570E+00  7064   0.615E+00    0.477E+00
DAV:   8    -0.141159455589E+03    0.83593E-01   -0.71970E-01  7416   0.463E+00    0.123E+00
DAV:   9    -0.141129827751E+03    0.29628E-01   -0.12401E-01  7240   0.160E+00    0.608E-01
DAV:  10    -0.141132584196E+03   -0.27564E-02   -0.10448E-01  7176   0.131E+00    0.443E-01
DAV:  11    -0.141129460728E+03    0.31235E-02   -0.10230E-02  7568   0.502E-01    0.260E-01
DAV:  12    -0.141128943569E+03    0.51716E-03   -0.17071E-02  7264   0.554E-01    0.175E-01
DAV:  13    -0.141128159161E+03    0.78441E-03   -0.18570E-03  8504   0.271E-01    0.104E-01
DAV:  14    -0.141127685568E+03    0.47359E-03   -0.17567E-03  8024   0.235E-01    0.321E-02
DAV:  15    -0.141127142116E+03    0.54345E-03   -0.35619E-04  9968   0.223E-01    0.265E-02
DAV:  16    -0.141126774164E+03    0.36795E-03   -0.35122E-04  7488   0.185E-01    0.237E-02
DAV:  17    -0.141126321313E+03    0.45285E-03   -0.51133E-04  9896   0.352E-01    0.402E-02
DAV:  18    -0.141126177999E+03    0.14331E-03   -0.50956E-04  7880   0.205E-01    0.313E-02
DAV:  19    -0.141126079807E+03    0.98192E-04   -0.76387E-04  7968   0.247E-01    0.381E-02
DAV:  20    -0.141125971131E+03    0.10868E-03   -0.21420E-04  9216   0.203E-01    0.240E-02
DAV:  21    -0.141125940447E+03    0.30684E-04   -0.21913E-04  7376   0.143E-01    0.139E-02
DAV:  22    -0.141125920235E+03    0.20213E-04   -0.73727E-05  7792   0.118E-01    0.719E-03
DAV:  23    -0.141125927119E+03   -0.68845E-05   -0.10239E-04  6864   0.584E-02    0.855E-03
DAV:  24    -0.141125927998E+03   -0.87927E-06   -0.22520E-05  5256   0.200E-02
   1 F= -.14112593E+03 E0= -.14112398E+03  d E =-.141126E+03
       N       E                     dE             d eps       ncg     rms          rms(c)
DAV:   1    -0.141130016117E+03   -0.40890E-02   -0.58490E-02  6536   0.987E-01    0.781E-02
DAV:   2    -0.141129963399E+03    0.52718E-04   -0.46968E-03  7416   0.299E-01    0.713E-02
DAV:   3    -0.141129877119E+03    0.86280E-04   -0.51777E-04  7264   0.947E-02    0.550E-02
DAV:   4    -0.141129787699E+03    0.89420E-04   -0.27702E-04  7288   0.733E-02    0.238E-02
DAV:   5    -0.141129720064E+03    0.67635E-04   -0.12718E-04  7336   0.689E-02    0.204E-02
DAV:   6    -0.141129694029E+03    0.26035E-04   -0.59712E-05  7368   0.437E-02    0.120E-02
DAV:   7    -0.141129682427E+03    0.11601E-04   -0.43787E-05  6592   0.310E-02    0.102E-02
DAV:   8    -0.141129654458E+03    0.27969E-04   -0.12282E-05  5000   0.528E-02    0.858E-03
DAV:   9    -0.141129642127E+03    0.12331E-04   -0.18817E-05  5672   0.357E-02    0.585E-03
DAV:  10    -0.141129613406E+03    0.28720E-04   -0.12375E-05  5224   0.834E-02    0.555E-03
DAV:  11    -0.141129601641E+03    0.11766E-04   -0.37209E-05  6504   0.642E-02    0.696E-03
DAV:  12    -0.141129602392E+03   -0.75145E-06   -0.31922E-05  5912   0.227E-02
   2 F= -.14112960E+03 E0= -.14112769E+03  d E =-.367439E-02
       N       E                     dE             d eps       ncg     rms          rms(c)
DAV:   1    -0.141129881733E+03   -0.28009E-03   -0.64033E-03  6640   0.325E-01    0.250E-02
DAV:   2    -0.141129874227E+03    0.75055E-05   -0.49166E-04  7408   0.956E-02    0.233E-02
DAV:   3    -0.141129863990E+03    0.10237E-04   -0.52533E-05  6864   0.306E-02    0.181E-02
DAV:   4    -0.141129852852E+03    0.11138E-04   -0.30834E-05  6272   0.258E-02    0.773E-03
DAV:   5    -0.141129842822E+03    0.10029E-04   -0.13159E-05  5504   0.248E-02    0.664E-03
DAV:   6    -0.141129837214E+03    0.56086E-05   -0.55986E-06  4544   0.189E-02
   3 F= -.14112984E+03 E0= -.14112794E+03  d E =-.390922E-02
       N       E                     dE             d eps       ncg     rms          rms(c)
DAV:   1    -0.141130798758E+03   -0.95594E-03   -0.39801E-01  6328   0.265E+00    0.865E-02
DAV:   2    -0.141131693362E+03   -0.89460E-03   -0.10109E-02  7232   0.362E-01    0.522E-02
DAV:   3    -0.141131633023E+03    0.60339E-04   -0.11286E-04  7464   0.624E-02    0.347E-02
DAV:   4    -0.141131600927E+03    0.32096E-04   -0.69200E-05  7336   0.520E-02    0.146E-02
DAV:   5    -0.141131593012E+03    0.79155E-05   -0.33112E-05  6920   0.395E-02    0.455E-03
DAV:   6    -0.141131592251E+03    0.76035E-06   -0.17135E-05  4896   0.238E-02
   4 F= -.14113159E+03 E0= -.14112972E+03  d E =-.175504E-02
       N       E                     dE             d eps       ncg     rms          rms(c)
DAV:   1    -0.141126923067E+03    0.46699E-02   -0.32754E+00  6304   0.762E+00    0.252E-01
DAV:   2    -0.141134505021E+03   -0.75820E-02   -0.85572E-02  7216   0.105E+00    0.156E-01
DAV:   3    -0.141133955899E+03    0.54912E-03   -0.80156E-04  7472   0.176E-01    0.102E-01
DAV:   4    -0.141133673179E+03    0.28272E-03   -0.71695E-04  7360   0.161E-01    0.392E-02
DAV:   5    -0.141133642182E+03    0.30997E-04   -0.34627E-04  7352   0.101E-01    0.119E-02
DAV:   6    -0.141133636279E+03    0.59031E-05   -0.54405E-05  7128   0.441E-02
   5 F= -.14113364E+03 E0= -.14113182E+03  d E =-.379907E-02
       N       E                     dE             d eps       ncg     rms          rms(c)
DAV:   1    -0.141134319129E+03   -0.67695E-03   -0.35997E-01  6320   0.267E+00    0.824E-02
DAV:   2    -0.141135099049E+03   -0.77992E-03   -0.85443E-03  7248   0.371E-01    0.457E-02
DAV:   3    -0.141135051823E+03    0.47225E-04   -0.79320E-05  7448   0.469E-02    0.315E-02
DAV:   4    -0.141135016558E+03    0.35266E-04   -0.12634E-04  7256   0.598E-02    0.114E-02
DAV:   5    -0.141135013687E+03    0.28709E-05   -0.35195E-05  6560   0.314E-02    0.991E-03
DAV:   6    -0.141135010086E+03    0.36002E-05   -0.15263E-05  4568   0.228E-02
   6 F= -.14113501E+03 E0= -.14113321E+03  d E =-.137381E-02
       N       E                     dE             d eps       ncg     rms          rms(c)
DAV:   1    -0.141132656489E+03    0.23572E-02   -0.18455E+00  6328   0.605E+00    0.184E-01
DAV:   2    -0.141136667361E+03   -0.40109E-02   -0.44213E-02  7248   0.844E-01    0.107E-01
DAV:   3    -0.141136411339E+03    0.25602E-03   -0.45047E-04  7464   0.109E-01    0.751E-02
DAV:   4    -0.141136199157E+03    0.21218E-03   -0.68819E-04  7360   0.134E-01    0.290E-02
DAV:   5    -0.141136167000E+03    0.32157E-04   -0.17621E-04  7376   0.772E-02    0.246E-02
DAV:   6    -0.141136132764E+03    0.34236E-04   -0.11341E-04  7000   0.686E-02    0.108E-02
DAV:   7    -0.141136100349E+03    0.32415E-04   -0.17487E-05  5160   0.527E-02    0.933E-03
DAV:   8    -0.141136053282E+03    0.47067E-04   -0.12422E-05  5048   0.665E-02    0.836E-03
DAV:   9    -0.141135978346E+03    0.74936E-04   -0.44807E-05  7360   0.109E-01    0.909E-03
DAV:  10    -0.141135886055E+03    0.92291E-04   -0.93493E-05  8328   0.197E-01    0.158E-02
DAV:  11    -0.141135861893E+03    0.24161E-04   -0.18268E-04  8592   0.142E-01    0.920E-03
DAV:  12    -0.141135874416E+03   -0.12522E-04   -0.17835E-04  7024   0.834E-02    0.209E-02
DAV:  13    -0.141135868365E+03    0.60504E-05   -0.59377E-05  6560   0.356E-02
   7 F= -.14113587E+03 E0= -.14113409E+03  d E =-.223209E-02
       N       E                     dE             d eps       ncg     rms          rms(c)
DAV:   1    -0.141136442984E+03   -0.56857E-03   -0.15187E-01  6408   0.172E+00    0.509E-02
DAV:   2    -0.141136758828E+03   -0.31584E-03   -0.34786E-03  7224   0.234E-01    0.297E-02
DAV:   3    -0.141136742119E+03    0.16709E-04   -0.35807E-05  6480   0.303E-02    0.206E-02
DAV:   4    -0.141136730829E+03    0.11290E-04   -0.45194E-05  6864   0.355E-02    0.739E-03
DAV:   5    -0.141136730218E+03    0.61125E-06   -0.11876E-05  4216   0.176E-02    0.638E-03
DAV:   6    -0.141136728867E+03    0.13512E-05   -0.66291E-06  4240   0.166E-02
   8 F= -.14113673E+03 E0= -.14113495E+03  d E =-.860502E-03
       N       E                     dE             d eps       ncg     rms          rms(c)
DAV:   1    -0.141135653135E+03    0.10771E-02   -0.13669E+00  6304   0.517E+00    0.158E-01
DAV:   2    -0.141138533432E+03   -0.28803E-02   -0.31683E-02  7208   0.704E-01    0.883E-02
DAV:   3    -0.141138376299E+03    0.15713E-03   -0.30568E-04  7408   0.914E-02    0.600E-02
DAV:   4    -0.141138272153E+03    0.10415E-03   -0.42959E-04  7272   0.118E-01    0.210E-02
DAV:   5    -0.141138268732E+03    0.34208E-05   -0.13577E-04  7176   0.538E-02    0.209E-02
DAV:   6    -0.141138254880E+03    0.13852E-04   -0.44255E-05  6360   0.343E-02    0.927E-03
DAV:   7    -0.141138243365E+03    0.11515E-04   -0.52402E-06  4344   0.246E-02    0.718E-03
DAV:   8    -0.141138224859E+03    0.18506E-04   -0.43524E-06  4664   0.388E-02    0.500E-03
DAV:   9    -0.141138198855E+03    0.26003E-04   -0.14693E-05  5248   0.633E-02    0.389E-03
DAV:  10    -0.141138156933E+03    0.41922E-04   -0.58839E-05  8008   0.157E-01    0.114E-02
DAV:  11    -0.141138148547E+03    0.83865E-05   -0.77610E-05  7264   0.815E-02
   9 F= -.14113815E+03 E0= -.14113637E+03  d E =-.228018E-02
       N       E                     dE             d eps       ncg     rms          rms(c)
DAV:   1    -0.141138059524E+03    0.97410E-04   -0.99229E-02  6504   0.140E+00    0.415E-02
DAV:   2    -0.141138268977E+03   -0.20945E-03   -0.22930E-03  7216   0.191E-01    0.250E-02
DAV:   3    -0.141138256877E+03    0.12100E-04   -0.19416E-05  5368   0.260E-02    0.169E-02
DAV:   4    -0.141138249108E+03    0.77694E-05   -0.40880E-05  6664   0.382E-02    0.584E-03
DAV:   5    -0.141138249304E+03   -0.19647E-06   -0.12662E-05  4208   0.161E-02    0.584E-03
DAV:   6    -0.141138248458E+03    0.84625E-06   -0.26203E-06  4136   0.822E-03
  10 F= -.14113825E+03 E0= -.14113647E+03  d E =-.238009E-02
       N       E                     dE             d eps       ncg     rms          rms(c)
DAV:   1    -0.141139167157E+03   -0.91785E-03   -0.71015E-02  6416   0.119E+00    0.408E-02
DAV:   2    -0.141139307874E+03   -0.14072E-03   -0.19586E-03  7328   0.191E-01    0.278E-02
DAV:   3    -0.141139293410E+03    0.14465E-04   -0.60296E-05  7256   0.393E-02    0.216E-02
DAV:   4    -0.141139281089E+03    0.12321E-04   -0.34941E-05  6304   0.281E-02    0.931E-03
DAV:   5    -0.141139273680E+03    0.74092E-05   -0.92411E-06  4616   0.281E-02    0.673E-03
DAV:   6    -0.141139268272E+03    0.54080E-05   -0.62033E-06  4568   0.344E-02
  11 F= -.14113927E+03 E0= -.14113748E+03  d E =-.101981E-02
       N       E                     dE             d eps       ncg     rms          rms(c)
DAV:   1    -0.141139599028E+03   -0.32535E-03   -0.29592E-01  6344   0.242E+00    0.836E-02
DAV:   2    -0.141140207990E+03   -0.60896E-03   -0.83181E-03  7328   0.390E-01    0.578E-02
DAV:   3    -0.141140143549E+03    0.64441E-04   -0.23396E-04  7432   0.791E-02    0.445E-02
DAV:   4    -0.141140088230E+03    0.55319E-04   -0.16709E-04  7144   0.635E-02    0.183E-02
DAV:   5    -0.141140060314E+03    0.27916E-04   -0.40138E-05  7280   0.579E-02    0.145E-02
DAV:   6    -0.141140036649E+03    0.23665E-04   -0.29445E-05  6272   0.741E-02    0.736E-03
DAV:   7    -0.141140033629E+03    0.30196E-05   -0.60271E-05  6752   0.434E-02
  12 F= -.14114003E+03 E0= -.14113824E+03  d E =-.178517E-02
       N       E                     dE             d eps       ncg     rms          rms(c)
DAV:   1    -0.141140572827E+03   -0.53618E-03   -0.22066E-01  6352   0.197E+00    0.586E-02
DAV:   2    -0.141140956882E+03   -0.38406E-03   -0.44505E-03  7288   0.264E-01    0.348E-02
DAV:   3    -0.141140924456E+03    0.32426E-04   -0.47088E-05  7144   0.409E-02    0.235E-02
DAV:   4    -0.141140900098E+03    0.24358E-04   -0.98396E-05  7248   0.618E-02    0.843E-03
DAV:   5    -0.141140901664E+03   -0.15667E-05   -0.38987E-05  6296   0.269E-02    0.981E-03
DAV:   6    -0.141140901078E+03    0.58633E-06   -0.23584E-06  4160   0.679E-03
  13 F= -.14114090E+03 E0= -.14113911E+03  d E =-.867449E-03
       N       E                     dE             d eps       ncg     rms          rms(c)
DAV:   1    -0.141139752156E+03    0.11495E-02   -0.13423E+00  6320   0.486E+00    0.142E-01
DAV:   2    -0.141142093680E+03   -0.23415E-02   -0.27086E-02  7288   0.651E-01    0.869E-02
DAV:   3    -0.141141893212E+03    0.20047E-03   -0.26061E-04  7464   0.103E-01    0.593E-02
DAV:   4    -0.141141737237E+03    0.15598E-03   -0.64655E-04  7904   0.171E-01    0.194E-02
DAV:   5    -0.141141754197E+03   -0.16960E-04   -0.28291E-04  7184   0.697E-02    0.244E-02
DAV:   6    -0.141141754045E+03    0.15248E-06   -0.69842E-06  4240   0.109E-02
  14 F= -.14114175E+03 E0= -.14113994E+03  d E =-.172042E-02
       N       E                     dE             d eps       ncg     rms          rms(c)
DAV:   1    -0.141142000236E+03   -0.24604E-03   -0.34509E-01  6344   0.251E+00    0.812E-02
DAV:   2    -0.141142628909E+03   -0.62867E-03   -0.73643E-03  7312   0.344E-01    0.450E-02
DAV:   3    -0.141142572546E+03    0.56363E-04   -0.86319E-05  7280   0.584E-02    0.302E-02
DAV:   4    -0.141142524322E+03    0.48225E-04   -0.93009E-05  7168   0.811E-02    0.111E-02
DAV:   5    -0.141142516667E+03    0.76549E-05   -0.83692E-05  6984   0.551E-02    0.108E-02
DAV:   6    -0.141142513549E+03    0.31174E-05   -0.17940E-05  4896   0.187E-02
  15 F= -.14114251E+03 E0= -.14114071E+03  d E =-.759504E-03
       N       E                     dE             d eps       ncg     rms          rms(c)
DAV:   1    -0.141141762271E+03    0.75440E-03   -0.69838E-01  6352   0.357E+00    0.105E-01
DAV:   2    -0.141143047608E+03   -0.12853E-02   -0.14684E-02  7328   0.485E-01    0.624E-02
DAV:   3    -0.141142934838E+03    0.11277E-03   -0.15010E-04  7432   0.804E-02    0.428E-02
DAV:   4    -0.141142815914E+03    0.11892E-03   -0.21276E-04  7440   0.128E-01    0.144E-02
DAV:   5    -0.141142802953E+03    0.12961E-04   -0.18649E-04  7184   0.764E-02    0.155E-02
DAV:   6    -0.141142794409E+03    0.85438E-05   -0.39864E-05  6024   0.292E-02
  16 F= -.14114279E+03 E0= -.14114099E+03  d E =-.104036E-02
       N       E                     dE             d eps       ncg     rms          rms(c)
DAV:   1    -0.141142959207E+03   -0.15625E-03   -0.29580E-01  6376   0.245E+00    0.746E-02
DAV:   2    -0.141143575690E+03   -0.61648E-03   -0.69592E-03  7224   0.348E-01    0.427E-02
DAV:   3    -0.141143537209E+03    0.38481E-04   -0.10162E-04  7416   0.512E-02    0.313E-02
DAV:   4    -0.141143505822E+03    0.31387E-04   -0.11225E-04  7184   0.539E-02    0.130E-02
DAV:   5    -0.141143496334E+03    0.94883E-05   -0.25155E-05  5696   0.324E-02    0.106E-02
DAV:   6    -0.141143488300E+03    0.80339E-05   -0.23850E-05  5728   0.352E-02
  17 F= -.14114349E+03 E0= -.14114168E+03  d E =-.693891E-03
       N       E                     dE             d eps       ncg     rms          rms(c)
DAV:   1    -0.141143386877E+03    0.10946E-03   -0.12966E-01  6432   0.162E+00    0.494E-02
DAV:   2    -0.141143659989E+03   -0.27311E-03   -0.31322E-03  7272   0.235E-01    0.304E-02
DAV:   3    -0.141143639478E+03    0.20511E-04   -0.52564E-05  7232   0.374E-02    0.222E-02
DAV:   4    -0.141143620771E+03    0.18707E-04   -0.55379E-05  7040   0.364E-02    0.934E-03
DAV:   5    -0.141143614602E+03    0.61684E-05   -0.11067E-05  4560   0.267E-02    0.754E-03
DAV:   6    -0.141143609440E+03    0.51625E-05   -0.13640E-05  5216   0.347E-02
  18 F= -.14114361E+03 E0= -.14114180E+03  d E =-.815031E-03
       N       E                     dE             d eps       ncg     rms          rms(c)
DAV:   1    -0.141143779746E+03   -0.16514E-03   -0.34032E-01  6624   0.257E+00    0.760E-02
DAV:   2    -0.141144389301E+03   -0.60955E-03   -0.73166E-03  7312   0.353E-01    0.463E-02
DAV:   3    -0.141144333524E+03    0.55776E-04   -0.11469E-04  7392   0.613E-02    0.325E-02
DAV:   4    -0.141144281811E+03    0.51713E-04   -0.11287E-04  7152   0.713E-02    0.134E-02
DAV:   5    -0.141144263184E+03    0.18627E-04   -0.52582E-05  7272   0.589E-02    0.127E-02
DAV:   6    -0.141144251453E+03    0.11731E-04   -0.40510E-05  6312   0.449E-02    0.676E-03
DAV:   7    -0.141144232437E+03    0.19016E-04   -0.60331E-06  4824   0.536E-02    0.607E-03
DAV:   8    -0.141144216813E+03    0.15624E-04   -0.10352E-05  4744   0.515E-02    0.670E-03
DAV:   9    -0.141144205065E+03    0.11747E-04   -0.14832E-05  5288   0.526E-02    0.470E-03
DAV:  10    -0.141144184419E+03    0.20646E-04   -0.15849E-05  5600   0.116E-01    0.497E-03
DAV:  11    -0.141144186008E+03   -0.15887E-05   -0.57339E-05  6424   0.377E-02
  19 F= -.14114419E+03 E0= -.14114237E+03  d E =-.576568E-03
       N       E                     dE             d eps       ncg     rms          rms(c)
DAV:   1    -0.141144183544E+03    0.87517E-06   -0.19210E-03  6928   0.194E-01    0.649E-03
DAV:   2    -0.141144186771E+03   -0.32274E-05   -0.53252E-05  6840   0.318E-02    0.513E-03
DAV:   3    -0.141144186014E+03    0.75755E-06   -0.20306E-06  4232   0.757E-03    0.396E-03
DAV:   4    -0.141144185105E+03    0.90871E-06   -0.98509E-07  4168   0.618E-03    0.193E-03
DAV:   5    -0.141144183627E+03    0.14785E-05   -0.85317E-07  4216   0.116E-02    0.196E-03
DAV:   6    -0.141144182681E+03    0.94592E-06   -0.74576E-07  4208   0.103E-02
  20 F= -.14114418E+03 E0= -.14114237E+03  d E =-.573241E-03
       N       E                     dE             d eps       ncg     rms          rms(c)
DAV:   1    -0.141144120902E+03    0.62724E-04   -0.30614E-01  6424   0.247E+00    0.736E-02
DAV:   2    -0.141144721917E+03   -0.60101E-03   -0.69520E-03  7344   0.347E-01    0.441E-02
DAV:   3    -0.141144666346E+03    0.55571E-04   -0.94342E-05  7360   0.623E-02    0.298E-02
DAV:   4    -0.141144606957E+03    0.59389E-04   -0.70583E-05  7168   0.766E-02    0.121E-02
DAV:   5    -0.141144589354E+03    0.17603E-04   -0.72551E-05  7280   0.641E-02    0.102E-02
DAV:   6    -0.141144584347E+03    0.50066E-05   -0.45501E-05  6776   0.381E-02
  21 F= -.14114458E+03 E0= -.14114276E+03  d E =-.401667E-03
       N       E                     dE             d eps       ncg     rms          rms(c)
DAV:   1    -0.141144534423E+03    0.54931E-04   -0.20416E-02  6584   0.641E-01    0.202E-02
DAV:   2    -0.141144564797E+03   -0.30374E-04   -0.48403E-04  7424   0.102E-01    0.123E-02
DAV:   3    -0.141144556057E+03    0.87394E-05   -0.24178E-05  5320   0.311E-02    0.960E-03
DAV:   4    -0.141144545691E+03    0.10366E-04   -0.26863E-06  4312   0.212E-02    0.619E-03
DAV:   5    -0.141144522199E+03    0.23493E-04   -0.18014E-05  5400   0.681E-02    0.674E-03
DAV:   6    -0.141144514463E+03    0.77356E-05   -0.22875E-05  5696   0.470E-02
  22 F= -.14114451E+03 E0= -.14114269E+03  d E =-.331782E-03
       N       E                     dE             d eps       ncg     rms          rms(c)
DAV:   1    -0.141144517429E+03    0.47692E-05   -0.48562E-03  6944   0.320E-01    0.113E-02
DAV:   2    -0.141144533764E+03   -0.16335E-04   -0.18987E-04  7248   0.555E-02    0.157E-02
DAV:   3    -0.141144531176E+03    0.25881E-05   -0.36510E-06  4248   0.985E-03    0.121E-02
DAV:   4    -0.141144527768E+03    0.34074E-05   -0.16022E-05  4504   0.181E-02    0.347E-03
DAV:   5    -0.141144527497E+03    0.27176E-06   -0.32466E-06  4088   0.900E-03    0.249E-03
DAV:   6    -0.141144526826E+03    0.67087E-06   -0.92354E-07  4176   0.101E-02
  23 F= -.14114453E+03 E0= -.14114270E+03  d E =-.344145E-03
       N       E                     dE             d eps       ncg     rms          rms(c)
DAV:   1    -0.141144532540E+03   -0.50435E-05   -0.13688E-03  6576   0.165E-01    0.546E-03
DAV:   2    -0.141144535317E+03   -0.27764E-05   -0.33080E-05  6248   0.237E-02    0.356E-03
DAV:   3    -0.141144535013E+03    0.30384E-06   -0.88731E-07  3912   0.490E-03    0.207E-03
DAV:   4    -0.141144534758E+03    0.25469E-06   -0.62853E-07  3808   0.518E-03    0.796E-04
DAV:   5    -0.141144534650E+03    0.10787E-06   -0.28117E-07  3808   0.385E-03    0.576E-04
DAV:   6    -0.141144534546E+03    0.10430E-06   -0.14353E-07  3896   0.334E-03
  24 F= -.14114453E+03 E0= -.14114271E+03  d E =-.351865E-03
       N       E                     dE             d eps       ncg     rms          rms(c)
DAV:   1    -0.141144123495E+03    0.41116E-03   -0.37285E-01  6424   0.276E+00    0.823E-02
DAV:   2    -0.141144959078E+03   -0.83558E-03   -0.90825E-03  7192   0.383E-01    0.463E-02
DAV:   3    -0.141144909229E+03    0.49849E-04   -0.81515E-05  7448   0.471E-02    0.313E-02
DAV:   4    -0.141144868993E+03    0.40236E-04   -0.66409E-05  7192   0.522E-02    0.110E-02
DAV:   5    -0.141144860752E+03    0.82404E-05   -0.44048E-05  7000   0.367E-02    0.710E-03
DAV:   6    -0.141144855127E+03    0.56252E-05   -0.12607E-05  4440   0.215E-02
  25 F= -.14114486E+03 E0= -.14114303E+03  d E =-.320581E-03
       N       E                     dE             d eps       ncg     rms          rms(c)
DAV:   1    -0.141144374939E+03    0.48581E-03   -0.26448E-01  6400   0.232E+00    0.690E-02
DAV:   2    -0.141144959159E+03   -0.58422E-03   -0.64281E-03  7200   0.322E-01    0.389E-02
DAV:   3    -0.141144917431E+03    0.41728E-04   -0.53492E-05  7424   0.402E-02    0.264E-02
DAV:   4    -0.141144873430E+03    0.44001E-04   -0.49249E-05  7088   0.528E-02    0.900E-03
DAV:   5    -0.141144857955E+03    0.15475E-04   -0.40956E-05  7000   0.415E-02    0.633E-03
DAV:   6    -0.141144846127E+03    0.11828E-04   -0.11809E-05  4464   0.278E-02    0.435E-03
DAV:   7    -0.141144827810E+03    0.18316E-04   -0.45614E-06  4776   0.379E-02    0.407E-03
DAV:   8    -0.141144801867E+03    0.25944E-04   -0.13017E-05  5376   0.645E-02    0.447E-03
DAV:   9    -0.141144771411E+03    0.30455E-04   -0.41248E-05  7360   0.122E-01    0.554E-03
DAV:  10    -0.141144766176E+03    0.52356E-05   -0.58055E-05  6976   0.771E-02
  26 F= -.14114477E+03 E0= -.14114293E+03  d E =-.231630E-03
       N       E                     dE             d eps       ncg     rms          rms(c)
DAV:   1    -0.141144716541E+03    0.54870E-04   -0.55945E-02  6768   0.107E+00    0.337E-02
DAV:   2    -0.141144840972E+03   -0.12443E-03   -0.13787E-03  7192   0.149E-01    0.175E-02
DAV:   3    -0.141144832652E+03    0.83194E-05   -0.12129E-05  4720   0.204E-02    0.117E-02
DAV:   4    -0.141144825373E+03    0.72793E-05   -0.12929E-05  4824   0.242E-02    0.362E-03
DAV:   5    -0.141144824605E+03    0.76800E-06   -0.87569E-06  4280   0.169E-02    0.315E-03
DAV:   6    -0.141144823990E+03    0.61486E-06   -0.30869E-06  4112   0.113E-02
  27 F= -.14114482E+03 E0= -.14114299E+03  d E =-.289444E-03
       N       E                     dE             d eps       ncg     rms          rms(c)
DAV:   1    -0.141144924836E+03   -0.10023E-03   -0.10518E-01  6328   0.146E+00    0.436E-02
DAV:   2    -0.141145146092E+03   -0.22126E-03   -0.24810E-03  7224   0.203E-01    0.245E-02
DAV:   3    -0.141145131371E+03    0.14722E-04   -0.32902E-05  6264   0.343E-02    0.169E-02
DAV:   4    -0.141145116852E+03    0.14518E-04   -0.14704E-05  4936   0.348E-02    0.728E-03
DAV:   5    -0.141145109377E+03    0.74752E-05   -0.14413E-05  4688   0.389E-02    0.512E-03
DAV:   6    -0.141145106875E+03    0.25026E-05   -0.16341E-05  4344   0.273E-02
  28 F= -.14114511E+03 E0= -.14114327E+03  d E =-.282884E-03
       N       E                     dE             d eps       ncg     rms          rms(c)
DAV:   1    -0.141144672910E+03    0.43647E-03   -0.31128E-01  6288   0.252E+00    0.761E-02
DAV:   2    -0.141145323127E+03   -0.65022E-03   -0.73698E-03  7216   0.352E-01    0.414E-02
DAV:   3    -0.141145275731E+03    0.47396E-04   -0.10714E-04  7432   0.642E-02    0.288E-02
DAV:   4    -0.141145226104E+03    0.49627E-04   -0.40260E-05  6768   0.627E-02    0.130E-02
DAV:   5    -0.141145192792E+03    0.33312E-04   -0.38849E-05  6936   0.768E-02    0.867E-03
DAV:   6    -0.141145175709E+03    0.17083E-04   -0.47956E-05  6560   0.659E-02    0.749E-03
DAV:   7    -0.141145147954E+03    0.27755E-04   -0.91178E-06  4816   0.823E-02    0.644E-03
DAV:   8    -0.141145125278E+03    0.22676E-04   -0.30217E-05  6056   0.833E-02    0.691E-03
DAV:   9    -0.141145120635E+03    0.46422E-05   -0.37528E-05  6312   0.402E-02
  29 F= -.14114512E+03 E0= -.14114328E+03  d E =-.296645E-03
       N       E                     dE             d eps       ncg     rms          rms(c)
DAV:   1    -0.141145099827E+03    0.25450E-04   -0.30659E-02  6496   0.792E-01    0.246E-02
DAV:   2    -0.141145167291E+03   -0.67464E-04   -0.75211E-04  7224   0.110E-01    0.155E-02
DAV:   3    -0.141145161673E+03    0.56182E-05   -0.63260E-06  4448   0.189E-02    0.104E-02
DAV:   4    -0.141145156857E+03    0.48164E-05   -0.15073E-05  4672   0.306E-02    0.284E-03
DAV:   5    -0.141145156976E+03   -0.11957E-06   -0.94363E-06  4144   0.137E-02    0.320E-03
DAV:   6    -0.141145156406E+03    0.57022E-06   -0.95271E-07  4088   0.489E-03
  30 F= -.14114516E+03 E0= -.14114331E+03  d E =-.332416E-03
       N       E                     dE             d eps       ncg     rms          rms(c)
DAV:   1    -0.141145320940E+03   -0.16396E-03   -0.41961E-02  6304   0.905E-01    0.277E-02
DAV:   2    -0.141145394026E+03   -0.73086E-04   -0.91499E-04  7368   0.128E-01    0.162E-02
DAV:   3    -0.141145386050E+03    0.79759E-05   -0.18314E-05  4832   0.233E-02    0.113E-02
DAV:   4    -0.141145376470E+03    0.95793E-05   -0.13541E-05  4616   0.220E-02    0.482E-03
DAV:   5    -0.141145371984E+03    0.44864E-05   -0.59132E-06  4528   0.205E-02    0.506E-03
DAV:   6    -0.141145367259E+03    0.47255E-05   -0.75106E-06  4664   0.287E-02
  31 F= -.14114537E+03 E0= -.14114352E+03  d E =-.210853E-03
       N       E                     dE             d eps       ncg     rms          rms(c)
DAV:   1    -0.141145371268E+03    0.71589E-06   -0.50115E-02  6336   0.990E-01    0.301E-02
DAV:   2    -0.141145459614E+03   -0.88346E-04   -0.10900E-03  7360   0.137E-01    0.173E-02
DAV:   3    -0.141145448404E+03    0.11210E-04   -0.14909E-05  4936   0.222E-02    0.116E-02
DAV:   4    -0.141145431608E+03    0.16796E-04   -0.25889E-05  6216   0.350E-02    0.652E-03
DAV:   5    -0.141145428322E+03    0.32860E-05   -0.90401E-06  4304   0.180E-02    0.628E-03
DAV:   6    -0.141145420695E+03    0.76271E-05   -0.58465E-06  4632   0.277E-02
  32 F= -.14114542E+03 E0= -.14114357E+03  d E =-.264289E-03
       N       E                     dE             d eps       ncg     rms          rms(c)
DAV:   1    -0.141145455929E+03   -0.27607E-04   -0.53590E-02  6568   0.103E+00    0.306E-02
DAV:   2    -0.141145565162E+03   -0.10923E-03   -0.12300E-03  7304   0.145E-01    0.180E-02
DAV:   3    -0.141145556533E+03    0.86285E-05   -0.15563E-05  4848   0.240E-02    0.120E-02
DAV:   4    -0.141145549323E+03    0.72100E-05   -0.14857E-05  4640   0.271E-02    0.440E-03
DAV:   5    -0.141145548305E+03    0.10185E-05   -0.99362E-06  4264   0.197E-02    0.430E-03
DAV:   6    -0.141145547906E+03    0.39900E-06   -0.44547E-06  4160   0.113E-02
  33 F= -.14114555E+03 E0= -.14114370E+03  d E =-.127211E-03
       N       E                     dE             d eps       ncg     rms          rms(c)
DAV:   1    -0.141145349887E+03    0.19842E-03   -0.15158E-01  6392   0.173E+00    0.503E-02
DAV:   2    -0.141145643062E+03   -0.29317E-03   -0.33617E-03  7304   0.241E-01    0.301E-02
DAV:   3    -0.141145616312E+03    0.26749E-04   -0.41696E-05  7176   0.397E-02    0.206E-02
DAV:   4    -0.141145591266E+03    0.25047E-04   -0.40421E-05  6552   0.476E-02    0.823E-03
DAV:   5    -0.141145584064E+03    0.72015E-05   -0.25660E-05  5376   0.377E-02    0.659E-03
DAV:   6    -0.141145578683E+03    0.53816E-05   -0.17571E-05  4624   0.338E-02
  34 F= -.14114558E+03 E0= -.14114373E+03  d E =-.157988E-03
       N       E                     dE             d eps       ncg     rms          rms(c)
DAV:   1    -0.141145495717E+03    0.88347E-04   -0.78602E-02  6560   0.126E+00    0.383E-02
DAV:   2    -0.141145667500E+03   -0.17178E-03   -0.19754E-03  7136   0.178E-01    0.223E-02
DAV:   3    -0.141145651028E+03    0.16472E-04   -0.21812E-05  5592   0.240E-02    0.151E-02
DAV:   4    -0.141145634003E+03    0.17025E-04   -0.16438E-05  5000   0.304E-02    0.611E-03
DAV:   5    -0.141145623099E+03    0.10905E-04   -0.12899E-05  4776   0.295E-02    0.344E-03
DAV:   6    -0.141145614070E+03    0.90284E-05   -0.56242E-06  4416   0.250E-02
  35 F= -.14114561E+03 E0= -.14114377E+03  d E =-.353877E-04
       N       E                     dE             d eps       ncg     rms          rms(c)
DAV:   1    -0.141145592193E+03    0.30906E-04   -0.31528E-03  6984   0.257E-01    0.806E-03
DAV:   2    -0.141145597258E+03   -0.50648E-05   -0.10077E-04  7224   0.428E-02    0.641E-03
DAV:   3    -0.141145594195E+03    0.30628E-05   -0.23454E-06  4240   0.884E-03    0.434E-03
DAV:   4    -0.141145586744E+03    0.74510E-05   -0.17775E-06  4360   0.187E-02    0.257E-03
DAV:   5    -0.141145577984E+03    0.87597E-05   -0.27879E-06  4544   0.290E-02    0.273E-03
DAV:   6    -0.141145557898E+03    0.20086E-04   -0.11252E-05  5368   0.835E-02    0.305E-03
DAV:   7    -0.141145549213E+03    0.86847E-05   -0.35794E-05  6368   0.760E-02
  36 F= -.14114555E+03 E0= -.14114370E+03  d E =0.294695E-04
       N       E                     dE             d eps       ncg     rms          rms(c)
DAV:   1    -0.141145582494E+03   -0.24596E-04   -0.15681E-02  6856   0.569E-01    0.180E-02
DAV:   2    -0.141145617991E+03   -0.35497E-04   -0.42205E-04  7272   0.842E-02    0.107E-02
DAV:   3    -0.141145615356E+03    0.26349E-05   -0.82713E-06  4328   0.157E-02    0.753E-03
DAV:   4    -0.141145613193E+03    0.21631E-05   -0.26007E-06  4280   0.132E-02    0.389E-03
DAV:   5    -0.141145611237E+03    0.19560E-05   -0.22812E-06  4408   0.192E-02    0.179E-03
DAV:   6    -0.141145610945E+03    0.29182E-06   -0.40841E-06  4168   0.122E-02
  37 F= -.14114561E+03 E0= -.14114376E+03  d E =-.617317E-04
       N       E                     dE             d eps       ncg     rms          rms(c)
DAV:   1    -0.141145617422E+03   -0.61857E-05   -0.10052E-02  6440   0.453E-01    0.145E-02
DAV:   2    -0.141145638277E+03   -0.20855E-04   -0.25638E-04  7296   0.666E-02    0.781E-03
DAV:   3    -0.141145635929E+03    0.23479E-05   -0.49685E-06  4272   0.149E-02    0.555E-03
DAV:   4    -0.141145633261E+03    0.26681E-05   -0.14704E-06  4296   0.155E-02    0.277E-03
DAV:   5    -0.141145630347E+03    0.29137E-05   -0.21214E-06  4512   0.245E-02    0.199E-03
DAV:   6    -0.141145629584E+03    0.76327E-06   -0.44366E-06  4232   0.157E-02
  38 F= -.14114563E+03 E0= -.14114378E+03  d E =-.803710E-04
       N       E                     dE             d eps       ncg     rms          rms(c)
DAV:   1    -0.141145745698E+03   -0.11535E-03   -0.43169E-03  6760   0.293E-01    0.108E-02
DAV:   2    -0.141145754599E+03   -0.89009E-05   -0.13216E-04  7280   0.485E-02    0.805E-03
DAV:   3    -0.141145752310E+03    0.22882E-05   -0.29468E-06  4232   0.930E-03    0.589E-03
DAV:   4    -0.141145748938E+03    0.33725E-05   -0.42751E-06  4384   0.147E-02    0.240E-03
DAV:   5    -0.141145747106E+03    0.18321E-05   -0.21584E-06  4224   0.116E-02    0.237E-03
DAV:   6    -0.141145743904E+03    0.32014E-05   -0.15700E-06  4440   0.203E-02
  39 F= -.14114574E+03 E0= -.14114390E+03  d E =-.114320E-03
       N       E                     dE             d eps       ncg     rms          rms(c)
DAV:   1    -0.141145829155E+03   -0.82049E-04   -0.31231E-02  6776   0.787E-01    0.272E-02
DAV:   2    -0.141145883668E+03   -0.54513E-04   -0.86497E-04  7336   0.123E-01    0.188E-02
DAV:   3    -0.141145864327E+03    0.19341E-04   -0.14040E-05  5064   0.246E-02    0.139E-02
DAV:   4    -0.141145824221E+03    0.40106E-04   -0.32775E-05  6544   0.533E-02    0.658E-03
DAV:   5    -0.141145805170E+03    0.19051E-04   -0.24269E-05  5528   0.366E-02    0.754E-03
DAV:   6    -0.141145780149E+03    0.25021E-04   -0.12412E-05  5064   0.441E-02    0.522E-03
DAV:   7    -0.141145730875E+03    0.49274E-04   -0.19914E-05  5816   0.967E-02    0.903E-03
DAV:   8    -0.141145683523E+03    0.47352E-04   -0.74355E-05  8080   0.138E-01    0.667E-03
DAV:   9    -0.141145671226E+03    0.12297E-04   -0.11297E-04  8216   0.125E-01    0.134E-02
DAV:  10    -0.141145670438E+03    0.78789E-06   -0.86017E-05  6576   0.447E-02
  40 F= -.14114567E+03 E0= -.14114382E+03  d E =-.408536E-04
       N       E                     dE             d eps       ncg     rms          rms(c)
DAV:   1    -0.141145789321E+03   -0.11810E-03   -0.85015E-03  7080   0.409E-01    0.164E-02
DAV:   2    -0.141145802572E+03   -0.13251E-04   -0.22977E-04  7320   0.629E-02    0.955E-03
DAV:   3    -0.141145797221E+03    0.53516E-05   -0.34992E-06  4376   0.131E-02    0.676E-03
DAV:   4    -0.141145788142E+03    0.90786E-05   -0.97321E-06  4872   0.276E-02    0.291E-03
DAV:   5    -0.141145785957E+03    0.21846E-05   -0.89831E-06  4296   0.157E-02    0.393E-03
DAV:   6    -0.141145784442E+03    0.15149E-05   -0.19872E-06  4168   0.885E-03
  41 F= -.14114578E+03 E0= -.14114394E+03  d E =-.154858E-03
       N       E                     dE             d eps       ncg     rms          rms(c)
DAV:   1    -0.141145798067E+03   -0.12110E-04   -0.94060E-04  7208   0.140E-01    0.541E-03
DAV:   2    -0.141145798477E+03   -0.40995E-06   -0.36134E-05  6512   0.269E-02    0.486E-03
DAV:   3    -0.141145796795E+03    0.16814E-05   -0.17367E-06  4216   0.757E-03    0.342E-03
DAV:   4    -0.141145792381E+03    0.44140E-05   -0.11675E-06  4320   0.145E-02    0.210E-03
DAV:   5    -0.141145787443E+03    0.49384E-05   -0.19673E-06  4464   0.206E-02    0.236E-03
DAV:   6    -0.141145775600E+03    0.11843E-04   -0.60094E-06  4992   0.632E-02    0.259E-03
DAV:   7    -0.141145771808E+03    0.37913E-05   -0.22154E-05  5800   0.479E-02
  42 F= -.14114577E+03 E0= -.14114392E+03  d E =-.142224E-03
