       N       E                     dE             d eps       ncg     rms          rms(c)
DAV:   1     0.879285766941E+02    0.87929E+02   -0.56219E+03   680   0.800E+02
DAV:   2    -0.218421151390E+02   -0.10977E+03   -0.94044E+02   965   0.139E+02
DAV:   3    -0.257225993248E+02   -0.38805E+01   -0.37938E+01   815   0.299E+01
DAV:   4    -0.258745490103E+02   -0.15195E+00   -0.14724E+00  1015   0.687E+00
DAV:   5    -0.258807580326E+02   -0.62090E-02   -0.62006E-02  1090   0.123E+00    0.285E+00
DAV:   6    -0.253231842610E+02    0.55757E+00   -0.17062E+00   705   0.473E+00    0.158E+00
DAV:   7    -0.252145258848E+02    0.10866E+00   -0.24986E-01   835   0.259E+00    0.711E-01
DAV:   8    -0.251812887631E+02    0.33237E-01   -0.10606E-01   885   0.152E+00    0.262E-01
DAV:   9    -0.251748518093E+02    0.64370E-02   -0.26253E-02   840   0.816E-01    0.164E-01
DAV:  10    -0.251693968554E+02    0.54550E-02   -0.70041E-03   875   0.421E-01    0.983E-02
DAV:  11    -0.251648293599E+02    0.45675E-02   -0.19913E-03   805   0.226E-01    0.763E-02
DAV:  12    -0.251577798822E+02    0.70495E-02   -0.42974E-03   725   0.234E-01    0.552E-02
DAV:  13    -0.251537171690E+02    0.40627E-02   -0.22161E-03   790   0.184E-01    0.435E-02
DAV:  14    -0.251500448569E+02    0.36723E-02   -0.18684E-03   695   0.141E-01    0.355E-02
DAV:  15    -0.251474140170E+02    0.26308E-02   -0.70039E-04   790   0.969E-02    0.293E-02
DAV:  16    -0.251476575524E+02   -0.24354E-03   -0.10142E-03   690   0.120E-01    0.234E-02
DAV:  17    -0.251469640674E+02    0.69349E-03   -0.41553E-04   715   0.778E-02    0.195E-02
DAV:  18    -0.251467116171E+02    0.25245E-03   -0.32072E-04   720   0.575E-02    0.153E-02
DAV:  19    -0.251465157314E+02    0.19589E-03   -0.11237E-04   755   0.346E-02    0.134E-02
DAV:  20    -0.251461890867E+02    0.32664E-03   -0.75929E-05   760   0.309E-02    0.111E-02
DAV:  21    -0.251460745078E+02    0.11458E-03   -0.35745E-05   720   0.262E-02    0.876E-03
DAV:  22    -0.251458649239E+02    0.20958E-03   -0.68640E-05   685   0.238E-02    0.761E-03
DAV:  23    -0.251459366937E+02   -0.71770E-04   -0.14941E-05   760   0.130E-02    0.628E-03
DAV:  24    -0.251460785054E+02   -0.14181E-03   -0.28988E-05   685   0.163E-02    0.501E-03
DAV:  25    -0.251461688844E+02   -0.90379E-04   -0.12234E-05   715   0.108E-02    0.422E-03
DAV:  26    -0.251463012993E+02   -0.13241E-03   -0.14679E-05   685   0.105E-02    0.318E-03
DAV:  27    -0.251463640085E+02   -0.62709E-04   -0.30716E-06   695   0.649E-03    0.256E-03
DAV:  28    -0.251464397357E+02   -0.75727E-04   -0.53981E-06   660   0.756E-03    0.209E-03
DAV:  29    -0.251464609273E+02   -0.21192E-04   -0.73208E-07   520   0.414E-03    0.147E-03
DAV:  30    -0.251464910717E+02   -0.30144E-04   -0.29571E-06   565   0.472E-03    0.111E-03
DAV:  31    -0.251465034590E+02   -0.12387E-04   -0.92422E-07   500   0.412E-03    0.903E-04
DAV:  32    -0.251465110956E+02   -0.76366E-05   -0.10601E-06   550   0.310E-03    0.844E-04
DAV:  33    -0.251465128753E+02   -0.17797E-05   -0.93475E-07   505   0.483E-03    0.984E-04
DAV:  34    -0.251465086919E+02    0.41834E-05   -0.78336E-07   540   0.371E-03    0.886E-04
DAV:  35    -0.251465099167E+02   -0.12248E-05   -0.97582E-07   505   0.463E-03    0.994E-04
DAV:  36    -0.251465183872E+02   -0.84704E-05   -0.10400E-06   480   0.478E-03    0.764E-04
DAV:  37    -0.251465306304E+02   -0.12243E-04   -0.37933E-07   465   0.289E-03    0.471E-04
DAV:  38    -0.251465422073E+02   -0.11577E-04   -0.36150E-07   480   0.237E-03    0.308E-04
DAV:  39    -0.251465474592E+02   -0.52519E-05   -0.12352E-07   495   0.145E-03    0.117E-04
DAV:  40    -0.251465487289E+02   -0.12697E-05   -0.18642E-08   460   0.635E-04    0.573E-05
DAV:  41    -0.251465494646E+02   -0.73569E-06   -0.71757E-09   405   0.420E-04
   1 F= -.25146549E+02 E0= -.25145851E+02  d E =-.139661E-02
