 vasp.5.4.4.18Apr17-6-g9f103f2a35 (build Nov 15 2019 10:10:58) complex          
  
 executed on             LinuxIFC date 2024.09.28  15:12:29
 running on   20 total cores
 distrk:  each k-point on   20 cores,    1 groups
 distr:  one band on NCORES_PER_BAND=   4 cores,    5 groups


--------------------------------------------------------------------------------------------------------


 INCAR:
 POTCAR:   PAW_PBE Al 04Jan2001                   
 POTCAR:   PAW_PBE Al 04Jan2001                   
   VRHFIN =Al: s2p1                                                             
   LEXCH  = PE                                                                  
   EATOM  =    53.5387 eV,    3.9350 Ry                                         
                                                                                
   TITEL  = PAW_PBE Al 04Jan2001                                                
   LULTRA =        F    use ultrasoft PP ?                                      
   IUNSCR =        1    unscreen: 0-lin 1-nonlin 2-no                           
   RPACOR =    1.500    partial core radius                                     
   POMASS =   26.982; ZVAL   =    3.000    mass and valenz                      
   RCORE  =    1.900    outmost cutoff radius                                   
   RWIGS  =    2.650; RWIGS  =    1.402    wigner-seitz radius (au A)           
   ENMAX  =  240.300; ENMIN  =  180.225 eV                                      
   ICORE  =        2    local potential                                         
   LCOR   =        T    correct aug charges                                     
   LPAW   =        T    paw PP                                                  
   EAUG   =  291.052                                                            
   DEXC   =    -.041                                                            
   RMAX   =    2.974    core radius for proj-oper                               
   RAUG   =    1.300    factor for augmentation sphere                          
   RDEP   =    1.966    radius for radial grids                                 
   QCUT   =   -4.203; QGAM   =    8.405    optimization parameters              
                                                                                
   Description                                                                  
     l     E      TYP  RCUT    TYP  RCUT                                        
     0   .000     23  1.900                                                     
     0   .000     23  1.900                                                     
     1   .000     23  1.900                                                     
     1  1.000     23  1.900                                                     
     2   .000      7  1.900                                                     
  local pseudopotential read in
  partial core-charges read in
  atomic valenz-charges read in
  non local Contribution for L=           0  read in
    real space projection operators read in
  non local Contribution for L=           0  read in
    real space projection operators read in
  non local Contribution for L=           1  read in
    real space projection operators read in
  non local Contribution for L=           1  read in
    real space projection operators read in
    PAW grid and wavefunctions read in
 
   number of l-projection  operators is LMAX  =           4
   number of lm-projection operators is LMMAX =           8
 
 PAW_PBE Al 04Jan2001                   :
 energy of atom  1       EATOM=  -53.5387
 kinetic energy error for atom=    0.0004 (will be added to EATOM!!)
 
 
 POSCAR: Layer (26)                              
  positions in direct lattice
  velocities in cartesian coordinates
 exchange correlation table for  LEXCH =        8
   RHO(1)=    0.500       N(1)  =     2000
   RHO(2)=  100.500       N(2)  =     4000

 VTST: version 3.2, (02/03/18)

 CHAIN: initializing optimizer
 
 OPT: Using VASP Conjugate-Gradient optimizer
 CHAIN: Read ICHAIN            0
 
 POSCAR: Layer (26)                              
  positions in direct lattice
  velocities in cartesian coordinates
 


--------------------------------------------------------------------------------------------------------


 ion  position               nearest neighbor table
   1  0.000  0.000  0.231-   6 2.83   6 2.83   6 2.83
   2  0.000  0.000  0.328-   4 2.80   4 2.80   4 2.80   7 2.82   7 2.82   7 2.82
   3  0.000  0.000  0.425-   5 2.76   5 2.76   5 2.76
   4  0.667  0.333  0.296-   6 2.80   6 2.80   6 2.80   2 2.80   2 2.80   2 2.80
   5  0.667  0.333  0.393-   3 2.76   3 2.76   3 2.76   7 2.83   7 2.83   7 2.83
   6  0.333  0.667  0.264-   4 2.80   4 2.80   4 2.80   1 2.83   1 2.83   1 2.83
   7  0.333  0.667  0.361-   2 2.82   2 2.82   2 2.82   5 2.83   5 2.83   5 2.83
 
  LATTYP: Found a hexagonal cell.
 ALAT       =     3.0106507234
 C/A-ratio  =    22.7565552224
  
  Lattice vectors:
  
 A1 = (   2.6073001451,  -1.5053251248,   0.0000000000)
 A2 = (   0.0000000000,   3.0106502496,   0.0000000000)
 A3 = (  -0.0000000000,   0.0000000000,  68.5120394419)


Analysis of symmetry for initial positions (statically):
=====================================================================
 Subroutine PRICEL returns:
 Original cell was already a primitive cell.
 

 Routine SETGRP: Setting up the symmetry group for a 
 hexagonal supercell.


 Subroutine GETGRP returns: Found  6 space group operations
 (whereof  6 operations were pure point group operations)
 out of a pool of 24 trial point group operations.


The static configuration has the point symmetry C_3v.


Analysis of symmetry for dynamics (positions and initial velocities):
=====================================================================
 Subroutine PRICEL returns:
 Original cell was already a primitive cell.
 

 Routine SETGRP: Setting up the symmetry group for a 
 hexagonal supercell.


 Subroutine GETGRP returns: Found  6 space group operations
 (whereof  6 operations were pure point group operations)
 out of a pool of 24 trial point group operations.


The dynamic configuration has the point symmetry C_3v.


Analysis of constrained symmetry for selective dynamics:
=====================================================================
 Subroutine PRICEL returns:
 Original cell was already a primitive cell.
 

 Routine SETGRP: Setting up the symmetry group for a 
 hexagonal supercell.


 Subroutine GETGRP returns: Found  6 space group operations
 (whereof  6 operations were pure point group operations)
 out of a pool of 24 trial point group operations.


The constrained configuration has the point symmetry C_3v.


 Subroutine INISYM returns: Found  6 space group operations
 (whereof  6 operations are pure point group operations),
 and found     1 'primitive' translations

 
 
 KPOINTS: K-Spacing Value to Generate K-Mesh: 0.02

Automatic generation of k-mesh.
Space group operators:
 irot       det(A)        alpha          n_x          n_y          n_z        tau_x        tau_y        tau_z
    1     1.000000     0.000000     1.000000     0.000000     0.000000     0.000000     0.000000     0.000000
    2     1.000000   120.000000     0.000000     0.000000    -1.000000     0.000000     0.000000     0.000000
    3     1.000000   120.000000    -0.000000     0.000000     1.000000     0.000000     0.000000     0.000000
    4    -1.000000   180.000000    -0.866025     0.500000    -0.000000     0.000000     0.000000     0.000000
    5    -1.000000   179.999999     0.000000     1.000000     0.000000     0.000000     0.000000     0.000000
    6    -1.000000   180.000000    -0.866025    -0.500000    -0.000000     0.000000     0.000000     0.000000
 
 Subroutine IBZKPT returns following result:
 ===========================================
 
 Found     21 irreducible k-points:
 
 Following reciprocal coordinates:
            Coordinates               Weight
  0.000000  0.000000  0.000000      1.000000
  0.076923  0.000000 -0.000000      6.000000
  0.153846  0.000000 -0.000000      6.000000
  0.230769  0.000000  0.000000      6.000000
  0.307692  0.000000 -0.000000      6.000000
  0.384615  0.000000 -0.000000      6.000000
  0.461538  0.000000  0.000000      6.000000
  0.076923  0.076923 -0.000000      6.000000
  0.153846  0.076923 -0.000000     12.000000
  0.230769  0.076923 -0.000000     12.000000
  0.307692  0.076923 -0.000000     12.000000
  0.384615  0.076923  0.000000     12.000000
  0.461538  0.076923 -0.000000      6.000000
  0.153846  0.153846 -0.000000      6.000000
  0.230769  0.153846 -0.000000     12.000000
  0.307692  0.153846 -0.000000     12.000000
  0.384615  0.153846 -0.000000     12.000000
  0.230769  0.230769 -0.000000      6.000000
  0.307692  0.230769  0.000000     12.000000
  0.384615  0.230769  0.000000      6.000000
  0.307692  0.307692 -0.000000      6.000000
 
 Following cartesian coordinates:
            Coordinates               Weight
  0.000000  0.000000  0.000000      1.000000
  0.029503  0.000000  0.000000      6.000000
  0.059006  0.000000  0.000000      6.000000
  0.088509  0.000000  0.000000      6.000000
  0.118012  0.000000  0.000000      6.000000
  0.147515  0.000000  0.000000      6.000000
  0.177018  0.000000  0.000000      6.000000
  0.044254  0.025550  0.000000      6.000000
  0.073757  0.025550  0.000000     12.000000
  0.103260  0.025550  0.000000     12.000000
  0.132763  0.025550  0.000000     12.000000
  0.162266  0.025550  0.000000     12.000000
  0.191769  0.025550  0.000000      6.000000
  0.088509  0.051101  0.000000      6.000000
  0.118012  0.051101  0.000000     12.000000
  0.147515  0.051101  0.000000     12.000000
  0.177018  0.051101  0.000000     12.000000
  0.132763  0.076651  0.000000      6.000000
  0.162266  0.076651  0.000000     12.000000
  0.191769  0.076651  0.000000      6.000000
  0.177018  0.102201  0.000000      6.000000
 


--------------------------------------------------------------------------------------------------------




 Dimension of arrays:
   k-points           NKPTS =     21   k-points in BZ     NKDIM =     21   number of bands    NBANDS=     15
   number of dos      NEDOS =    301   number of ions     NIONS =      7
   non local maximal  LDIM  =      4   non local SUM 2l+1 LMDIM =      8
   total plane-waves  NPLWV = 311040
   max r-space proj   IRMAX =      1   max aug-charges    IRDMAX= 180255
   dimension x,y,z NGX =    24 NGY =   24 NGZ =  540
   dimension x,y,z NGXF=    48 NGYF=   48 NGZF= 1080
   support grid    NGXF=    96 NGYF=   96 NGZF= 2160
   ions per type =               7
   NGX,Y,Z   is equivalent  to a cutoff of  13.25, 13.25, 13.10 a.u.
   NGXF,Y,Z  is equivalent  to a cutoff of  26.51, 26.51, 26.21 a.u.

 Based on PREC, I would recommend the following setting:
   dimension x,y,z NGX =    24 NGY =   24 NGZ =  480

 SYSTEM =  unknown system                          
 POSCAR =  Layer (26)                              

 Startparameter for this run:
   NWRITE =      2    write-flag & timer
   PREC   = accura    normal or accurate (medium, high low for compatibility)
   ISTART =      0    job   : 0-new  1-cont  2-samecut
   ICHARG =      2    charge: 1-file 2-atom 10-const
   ISPIN  =      1    spin polarized calculation?
   LNONCOLLINEAR =      F non collinear calculations
   LSORBIT =      F    spin-orbit coupling
   INIWAV =      1    electr: 0-lowe 1-rand  2-diag
   LASPH  =      F    aspherical Exc in radial PAW
   METAGGA=      F    non-selfconsistent MetaGGA calc.

 Electronic Relaxation 1
   ENCUT  =  450.0 eV  33.07 Ry    5.75 a.u.   5.21  5.21118.50*2*pi/ulx,y,z
   ENINI  =  450.0     initial cutoff
   ENAUG  =  291.1 eV  augmentation charge cutoff
   NELM   =    100;   NELMIN=  6; NELMDL=  0     # of ELM steps 
   EDIFF  = 0.1E-05   stopping-criterion for ELM
   LREAL  =      F    real-space projection
   NLSPLINE    = F    spline interpolate recip. space projectors
   LCOMPAT=      F    compatible to vasp.4.4
   GGA_COMPAT  = T    GGA compatible to vasp.4.4-vasp.4.6
   LMAXPAW     = -100 max onsite density
   LMAXMIX     =    2 max onsite mixed and CHGCAR
   VOSKOWN=      0    Vosko Wilk Nusair interpolation
   ROPT   =    0.00000
 Ionic relaxation
   EDIFFG = -.2E-01   stopping-criterion for IOM
   NSW    =      0    number of steps for IOM
   NBLOCK =      1;   KBLOCK =      1    inner block; outer block 
   IBRION =     -1    ionic relax: 0-MD 1-quasi-New 2-CG
   NFREE  =      1    steps in history (QN), initial steepest desc. (CG)
   ISIF   =      4    stress and relaxation
   IWAVPR =     10    prediction:  0-non 1-charg 2-wave 3-comb
   ISYM   =      2    0-nonsym 1-usesym 2-fastsym
   LCORR  =      T    Harris-Foulkes like correction to forces

   POTIM  = 0.5000    time-step for ionic-motion
   TEIN   =    0.0    initial temperature
   TEBEG  =    0.0;   TEEND  =   0.0 temperature during run
   SMASS  =  -3.00    Nose mass-parameter (am)
   estimated Nose-frequenzy (Omega)   =  0.10E-29 period in steps =****** mass=  -0.207E-27a.u.
   SCALEE = 1.0000    scale energy and forces
   NPACO  =    256;   APACO  = 16.0  distance and # of slots for P.C.
   PSTRESS=    0.0 pullay stress

  Mass of Ions in am
   POMASS =  26.98
  Ionic Valenz
   ZVAL   =   3.00
  Atomic Wigner-Seitz radii
   RWIGS  =  -1.00
  virtual crystal weights 
   VCA    =   1.00
   NELECT =      21.0000    total number of electrons
   NUPDOWN=      -1.0000    fix difference up-down

 DOS related values:
   EMIN   =  10.00;   EMAX   =-10.00  energy-range for DOS
   EFERMI =   0.00
   ISMEAR =     0;   SIGMA  =   0.05  broadening in eV -4-tet -1-fermi 0-gaus

 Electronic relaxation 2 (details)
   IALGO  =     38    algorithm
   LDIAG  =      T    sub-space diagonalisation (order eigenvalues)
   LSUBROT=      F    optimize rotation matrix (better conditioning)
   TURBO    =      0    0=normal 1=particle mesh
   IRESTART =      0    0=no restart 2=restart with 2 vectors
   NREBOOT  =      0    no. of reboots
   NMIN     =      0    reboot dimension
   EREF     =   0.00    reference energy to select bands
   IMIX   =      4    mixing-type and parameters
     AMIX     =   0.40;   BMIX     =  1.00
     AMIX_MAG =   1.60;   BMIX_MAG =  1.00
     AMIN     =   0.01
     WC   =   100.;   INIMIX=   1;  MIXPRE=   1;  MAXMIX= -45

 Intra band minimization:
   WEIMIN = 0.0000     energy-eigenvalue tresh-hold
   EBREAK =  0.17E-07  absolut break condition
   DEPER  =   0.30     relativ break condition  

   TIME   =   0.40     timestep for ELM

  volume/ion in A,a.u.               =      76.83       518.46
  Fermi-wavevector in a.u.,A,eV,Ry     =   0.555403  1.049560  4.197029  0.308473
  Thomas-Fermi vector in A             =   1.589125
 
 Write flags
   LWAVE        =      F    write WAVECAR
   LDOWNSAMPLE  =      F    k-point downsampling of WAVECAR
   LCHARG       =      T    write CHGCAR
   LVTOT        =      F    write LOCPOT, total local potential
   LVHAR        =      F    write LOCPOT, Hartree potential only
   LELF         =      F    write electronic localiz. function (ELF)
   LORBIT       =      0    0 simple, 1 ext, 2 COOP (PROOUT), +10 PAW based schemes


 Dipole corrections
   LMONO  =      F    monopole corrections only (constant potential shift)
   LDIPOL =      F    correct potential (dipole corrections)
   IDIPOL =      0    1-x, 2-y, 3-z, 4-all directions 
   EPSILON=  1.0000000 bulk dielectric constant

 Exchange correlation treatment:
   GGA     =    --    GGA type
   LEXCH   =     8    internal setting for exchange type
   VOSKOWN=      0    Vosko Wilk Nusair interpolation
   LHFCALC =     F    Hartree Fock is set to
   LHFONE  =     F    Hartree Fock one center treatment
   AEXX    =    0.0000 exact exchange contribution

 Linear response parameters
   LEPSILON=     F    determine dielectric tensor
   LRPA    =     F    only Hartree local field effects (RPA)
   LNABLA  =     F    use nabla operator in PAW spheres
   LVEL    =     F    velocity operator in full k-point grid
   LINTERFAST=   F  fast interpolation
   KINTER  =     0    interpolate to denser k-point grid
   CSHIFT  =0.1000    complex shift for real part using Kramers Kronig
   OMEGAMAX=  -1.0    maximum frequency
   DEG_THRESHOLD= 0.2000000E-02 threshold for treating states as degnerate
   RTIME   =   -0.100 relaxation time in fs
  (WPLASMAI=    0.000 imaginary part of plasma frequency in eV, 0.658/RTIME)
   DFIELD  = 0.0000000 0.0000000 0.0000000 field for delta impulse in time
 
 Orbital magnetization related:
   ORBITALMAG=     F  switch on orbital magnetization
   LCHIMAG   =     F  perturbation theory with respect to B field
   DQ        =  0.001000  dq finite difference perturbation B field
   LLRAUG    =     F  two centre corrections for induced B field



--------------------------------------------------------------------------------------------------------


 Static calculation
 charge density and potential will be updated during run
 non-spin polarized calculation
 Variant of blocked Davidson
 Davidson routine will perform the subspace rotation
 perform sub-space diagonalisation
    after iterative eigenvector-optimisation
 modified Broyden-mixing scheme, WC =      100.0
 initial mixing is a Kerker type mixing with AMIX =  0.4000 and BMIX =      1.0000
 Hartree-type preconditioning will be used
 using additional bands            4
 reciprocal scheme for non local part
 use partial core corrections
 calculate Harris-corrections to forces 
   (improved forces if not selfconsistent)
 use gradient corrections 
 use of overlap-Matrix (Vanderbilt PP)
 Gauss-broadening in eV      SIGMA  =   0.05


--------------------------------------------------------------------------------------------------------


  energy-cutoff  :      450.00
  volume of cell :      537.80
      direct lattice vectors                 reciprocal lattice vectors
     2.607300145 -1.505325125  0.000000000     0.383538505  0.000000000  0.000000000
     0.000000000  3.010650250  0.000000000     0.191769253  0.332154158  0.000000000
    -0.000000000  0.000000000 68.512039442     0.000000000  0.000000000  0.014595975

  length of vectors
     3.010650723  3.010650250 68.512039442     0.383538505  0.383538565  0.014595975


 
 k-points in units of 2pi/SCALE and weight: K-Spacing Value to Generate K-Mesh: 0.02
   0.00000000  0.00000000  0.00000000       0.006
   0.02950296  0.00000000  0.00000000       0.036
   0.05900592  0.00000000  0.00000000       0.036
   0.08850889  0.00000000  0.00000000       0.036
   0.11801185  0.00000000  0.00000000       0.036
   0.14751481  0.00000000  0.00000000       0.036
   0.17701777  0.00000000  0.00000000       0.036
   0.04425444  0.02555032  0.00000000       0.036
   0.07375740  0.02555032  0.00000000       0.071
   0.10326037  0.02555032  0.00000000       0.071
   0.13276333  0.02555032  0.00000000       0.071
   0.16226629  0.02555032  0.00000000       0.071
   0.19176925  0.02555032  0.00000000       0.036
   0.08850889  0.05110064  0.00000000       0.036
   0.11801185  0.05110064  0.00000000       0.071
   0.14751481  0.05110064  0.00000000       0.071
   0.17701777  0.05110064  0.00000000       0.071
   0.13276333  0.07665096  0.00000000       0.036
   0.16226629  0.07665096  0.00000000       0.071
   0.19176925  0.07665096  0.00000000       0.036
   0.17701777  0.10220128  0.00000000       0.036
 
 k-points in reciprocal lattice and weights: K-Spacing Value to Generate K-Mesh: 0.02
   0.00000000  0.00000000  0.00000000       0.006
   0.07692308  0.00000000 -0.00000000       0.036
   0.15384615  0.00000000 -0.00000000       0.036
   0.23076923  0.00000000  0.00000000       0.036
   0.30769231  0.00000000 -0.00000000       0.036
   0.38461538  0.00000000 -0.00000000       0.036
   0.46153846  0.00000000  0.00000000       0.036
   0.07692308  0.07692308 -0.00000000       0.036
   0.15384615  0.07692308 -0.00000000       0.071
   0.23076923  0.07692308 -0.00000000       0.071
   0.30769231  0.07692308 -0.00000000       0.071
   0.38461538  0.07692308  0.00000000       0.071
   0.46153846  0.07692308 -0.00000000       0.036
   0.15384615  0.15384615 -0.00000000       0.036
   0.23076923  0.15384615 -0.00000000       0.071
   0.30769231  0.15384615 -0.00000000       0.071
   0.38461538  0.15384615 -0.00000000       0.071
   0.23076923  0.23076923 -0.00000000       0.036
   0.30769231  0.23076923  0.00000000       0.071
   0.38461538  0.23076923  0.00000000       0.036
   0.30769231  0.30769231 -0.00000000       0.036
 
 position of ions in fractional coordinates (direct lattice) 
   0.00000000  0.00000000  0.23148131
   0.00000000  0.00000000  0.32825908
   0.00000000  0.00000000  0.42460586
   0.66666700  0.33333300  0.29614856
   0.66666700  0.33333300  0.39331979
   0.33333300  0.66666700  0.26405646
   0.33333300  0.66666700  0.36069645
 
 position of ions in cartesian coordinates  (Angst):
  -0.00000000  0.00000000 15.85925671
  -0.00000000  0.00000000 22.48969930
  -0.00000000  0.00000000 29.09061332
   1.73820097 -0.00000151 20.28974169
   1.73820097 -0.00000151 26.94714130
   0.86909918  1.50532663 18.09104667
   0.86909918  1.50532663 24.71204966
 


--------------------------------------------------------------------------------------------------------


 k-point  1 :   0.0000 0.0000 0.0000  plane waves:   11577
 k-point  2 :   0.0769 0.0000-0.0000  plane waves:   11575
 k-point  3 :   0.1538 0.0000-0.0000  plane waves:   11621
 k-point  4 :   0.2308 0.0000 0.0000  plane waves:   11621
 k-point  5 :   0.3077 0.0000-0.0000  plane waves:   11699
 k-point  6 :   0.3846 0.0000-0.0000  plane waves:   11735
 k-point  7 :   0.4615 0.0000 0.0000  plane waves:   11731
 k-point  8 :   0.0769 0.0769-0.0000  plane waves:   11643
 k-point  9 :   0.1538 0.0769-0.0000  plane waves:   11618
 k-point 10 :   0.2308 0.0769-0.0000  plane waves:   11662
 k-point 11 :   0.3077 0.0769-0.0000  plane waves:   11704
 k-point 12 :   0.3846 0.0769 0.0000  plane waves:   11716
 k-point 13 :   0.4615 0.0769-0.0000  plane waves:   11676
 k-point 14 :   0.1538 0.1538-0.0000  plane waves:   11611
 k-point 15 :   0.2308 0.1538-0.0000  plane waves:   11647
 k-point 16 :   0.3077 0.1538-0.0000  plane waves:   11683
 k-point 17 :   0.3846 0.1538-0.0000  plane waves:   11669
 k-point 18 :   0.2308 0.2308-0.0000  plane waves:   11615
 k-point 19 :   0.3077 0.2308 0.0000  plane waves:   11634
 k-point 20 :   0.3846 0.2308 0.0000  plane waves:   11623
 k-point 21 :   0.3077 0.3077-0.0000  plane waves:   11597

 maximum and minimum number of plane-waves per node :      2960     2868

 maximum number of plane-waves:     11735
 maximum index in each direction: 
   IXMAX=    5   IYMAX=    5   IZMAX=  118
   IXMIN=   -5   IYMIN=   -5   IZMIN= -118


 parallel 3D FFT for wavefunctions:
    minimum data exchange during FFTs selected (reduces bandwidth)
 parallel 3D FFT for charge:
    minimum data exchange during FFTs selected (reduces bandwidth)


 total amount of memory used by VASP MPI-rank0    69182. kBytes
=======================================================================

   base      :      30000. kBytes
   nonl-proj :       4266. kBytes
   fftplans  :      21351. kBytes
   grid      :      10586. kBytes
   one-center:          6. kBytes
   wavefun   :       2973. kBytes
 
     INWAV:  cpu time    0.0000: real time    0.0002
 Broyden mixing: mesh for mixing (old mesh)
   NGX = 11   NGY = 11   NGZ =237
  (NGX  = 48   NGY  = 48   NGZ  =***)
  gives a total of  28677 points

 initial charge density was supplied:
 charge density of overlapping atoms calculated
 number of electron      21.0000000 magnetization 
 keeping initial charge density in first step


--------------------------------------------------------------------------------------------------------


 Maximum index for augmentation-charges         9304 (set IRDMAX)


--------------------------------------------------------------------------------------------------------


 First call to EWALD:  gamma=   0.218
 Maximum number of real-space cells 8x 8x 1
 Maximum number of reciprocal cells 1x 1x20

    FEWALD:  cpu time    0.0014: real time    0.0014


--------------------------------------- Iteration      1(   1)  ---------------------------------------


    POTLOK:  cpu time    0.0833: real time    0.0888
    SETDIJ:  cpu time    0.0998: real time    0.1045
     EDDAV:  cpu time    1.1797: real time    1.2013
       DOS:  cpu time    0.0010: real time    0.0013
    --------------------------------------------
      LOOP:  cpu time    1.3637: real time    1.3959

 eigenvalue-minimisations  :   680
 total energy-change (2. order) : 0.8792858E+02  (-0.5621887E+03)
 number of electron      21.0000000 magnetization 
 augmentation part       21.0000000 magnetization 

 Free energy of the ion-electron system (eV)
  ---------------------------------------------------
  alpha Z        PSCENC =        -0.30602968
  Ewald energy   TEWEN  =     17001.63325294
  -Hartree energ DENC   =    -17280.43089404
  -exchange      EXHF   =         0.00000000
  -V(xc)+E(xc)   XCENC  =      -185.18181192
  PAW double counting   =       248.87978439      -25.19288129
  entropy T*S    EENTRO =        -0.00569086
  eigenvalues    EBANDS =       -46.23500048
  atomic energy  EATOM  =       374.76784764
  Solvation  Ediel_sol  =         0.00000000
  ---------------------------------------------------
  free energy    TOTEN  =        87.92857669 eV

  energy without entropy =       87.93426755  energy(sigma->0) =       87.93142212


--------------------------------------------------------------------------------------------------------




--------------------------------------- Iteration      1(   2)  ---------------------------------------


     EDDAV:  cpu time    1.4449: real time    1.4507
       DOS:  cpu time    0.0006: real time    0.0006
    --------------------------------------------
      LOOP:  cpu time    1.4455: real time    1.4512

 eigenvalue-minimisations  :   965
 total energy-change (2. order) :-0.1097707E+03  (-0.9404398E+02)
 number of electron      21.0000000 magnetization 
 augmentation part       21.0000000 magnetization 

 Free energy of the ion-electron system (eV)
  ---------------------------------------------------
  alpha Z        PSCENC =        -0.30602968
  Ewald energy   TEWEN  =     17001.63325294
  -Hartree energ DENC   =    -17280.43089404
  -exchange      EXHF   =         0.00000000
  -V(xc)+E(xc)   XCENC  =      -185.18181192
  PAW double counting   =       248.87978439      -25.19288129
  entropy T*S    EENTRO =        -0.00261348
  eigenvalues    EBANDS =      -156.00876969
  atomic energy  EATOM  =       374.76784764
  Solvation  Ediel_sol  =         0.00000000
  ---------------------------------------------------
  free energy    TOTEN  =       -21.84211514 eV

  energy without entropy =      -21.83950166  energy(sigma->0) =      -21.84080840


--------------------------------------------------------------------------------------------------------




--------------------------------------- Iteration      1(   3)  ---------------------------------------


     EDDAV:  cpu time    1.4903: real time    1.4943
       DOS:  cpu time    0.0005: real time    0.0005
    --------------------------------------------
      LOOP:  cpu time    1.4908: real time    1.4948

 eigenvalue-minimisations  :   815
 total energy-change (2. order) :-0.3880484E+01  (-0.3793793E+01)
 number of electron      21.0000000 magnetization 
 augmentation part       21.0000000 magnetization 

 Free energy of the ion-electron system (eV)
  ---------------------------------------------------
  alpha Z        PSCENC =        -0.30602968
  Ewald energy   TEWEN  =     17001.63325294
  -Hartree energ DENC   =    -17280.43089404
  -exchange      EXHF   =         0.00000000
  -V(xc)+E(xc)   XCENC  =      -185.18181192
  PAW double counting   =       248.87978439      -25.19288129
  entropy T*S    EENTRO =        -0.00597620
  eigenvalues    EBANDS =      -159.88589116
  atomic energy  EATOM  =       374.76784764
  Solvation  Ediel_sol  =         0.00000000
  ---------------------------------------------------
  free energy    TOTEN  =       -25.72259932 eV

  energy without entropy =      -25.71662313  energy(sigma->0) =      -25.71961123


--------------------------------------------------------------------------------------------------------




--------------------------------------- Iteration      1(   4)  ---------------------------------------


     EDDAV:  cpu time    1.4224: real time    1.4247
       DOS:  cpu time    0.0007: real time    0.0012
    --------------------------------------------
      LOOP:  cpu time    1.4230: real time    1.4259

 eigenvalue-minimisations  :  1015
 total energy-change (2. order) :-0.1519497E+00  (-0.1472383E+00)
 number of electron      21.0000000 magnetization 
 augmentation part       21.0000000 magnetization 

 Free energy of the ion-electron system (eV)
  ---------------------------------------------------
  alpha Z        PSCENC =        -0.30602968
  Ewald energy   TEWEN  =     17001.63325294
  -Hartree energ DENC   =    -17280.43089404
  -exchange      EXHF   =         0.00000000
  -V(xc)+E(xc)   XCENC  =      -185.18181192
  PAW double counting   =       248.87978439      -25.19288129
  entropy T*S    EENTRO =        -0.00418912
  eigenvalues    EBANDS =      -160.03962793
  atomic energy  EATOM  =       374.76784764
  Solvation  Ediel_sol  =         0.00000000
  ---------------------------------------------------
  free energy    TOTEN  =       -25.87454901 eV

  energy without entropy =      -25.87035989  energy(sigma->0) =      -25.87245445


--------------------------------------------------------------------------------------------------------




--------------------------------------- Iteration      1(   5)  ---------------------------------------


     EDDAV:  cpu time    1.5175: real time    1.5203
       DOS:  cpu time    0.0005: real time    0.0005
    CHARGE:  cpu time    0.1865: real time    0.1867
    MIXING:  cpu time    0.0079: real time    0.0080
    --------------------------------------------
      LOOP:  cpu time    1.7124: real time    1.7156

 eigenvalue-minimisations  :  1090
 total energy-change (2. order) :-0.6209022E-02  (-0.6200615E-02)
 number of electron      21.0000000 magnetization 
 augmentation part       -0.2811288 magnetization 

 Broyden mixing:
  rms(total) = 0.28529E+00    rms(broyden)= 0.28529E+00
  rms(prec ) = 0.31058E+00
  weight for this iteration     100.00

 Free energy of the ion-electron system (eV)
  ---------------------------------------------------
  alpha Z        PSCENC =        -0.30602968
  Ewald energy   TEWEN  =     17001.63325294
  -Hartree energ DENC   =    -17280.43089404
  -exchange      EXHF   =         0.00000000
  -V(xc)+E(xc)   XCENC  =      -185.18181192
  PAW double counting   =       248.87978439      -25.19288129
  entropy T*S    EENTRO =        -0.00410853
  eigenvalues    EBANDS =      -160.04591753
  atomic energy  EATOM  =       374.76784764
  Solvation  Ediel_sol  =         0.00000000
  ---------------------------------------------------
  free energy    TOTEN  =       -25.88075803 eV

  energy without entropy =      -25.87664950  energy(sigma->0) =      -25.87870377


--------------------------------------------------------------------------------------------------------




--------------------------------------- Iteration      1(   6)  ---------------------------------------


    POTLOK:  cpu time    0.0851: real time    0.0853
    SETDIJ:  cpu time    0.0993: real time    0.0994
     EDDAV:  cpu time    1.0681: real time    1.0695
       DOS:  cpu time    0.0005: real time    0.0005
    CHARGE:  cpu time    0.1797: real time    0.1800
    MIXING:  cpu time    0.0085: real time    0.0085
    --------------------------------------------
      LOOP:  cpu time    1.4412: real time    1.4432

 eigenvalue-minimisations  :   705
 total energy-change (2. order) : 0.5575738E+00  (-0.1706248E+00)
 number of electron      21.0000000 magnetization 
 augmentation part       -0.2833228 magnetization 

 Broyden mixing:
  rms(total) = 0.15812E+00    rms(broyden)= 0.15812E+00
  rms(prec ) = 0.16219E+00
  weight for this iteration     100.00

 eigenvalues of (default mixing * dielectric matrix)
  average eigenvalue GAMMA=   1.8018
  1.8018

 Free energy of the ion-electron system (eV)
  ---------------------------------------------------
  alpha Z        PSCENC =        -0.30602968
  Ewald energy   TEWEN  =     17001.63325294
  -Hartree energ DENC   =    -17285.69868538
  -exchange      EXHF   =         0.00000000
  -V(xc)+E(xc)   XCENC  =      -185.00017091
  PAW double counting   =       248.93094915      -25.25679830
  entropy T*S    EENTRO =        -0.00372848
  eigenvalues    EBANDS =      -154.38982125
  atomic energy  EATOM  =       374.76784764
  Solvation  Ediel_sol  =         0.00000000
  ---------------------------------------------------
  free energy    TOTEN  =       -25.32318426 eV

  energy without entropy =      -25.31945578  energy(sigma->0) =      -25.32132002


--------------------------------------------------------------------------------------------------------




--------------------------------------- Iteration      1(   7)  ---------------------------------------


    POTLOK:  cpu time    0.1360: real time    0.1362
    SETDIJ:  cpu time    0.1199: real time    0.1201
     EDDAV:  cpu time    1.2032: real time    1.2053
       DOS:  cpu time    0.0011: real time    0.0013
    CHARGE:  cpu time    0.1677: real time    0.1679
    MIXING:  cpu time    0.0051: real time    0.0051
    --------------------------------------------
      LOOP:  cpu time    1.6330: real time    1.6359

 eigenvalue-minimisations  :   835
 total energy-change (2. order) : 0.1086584E+00  (-0.2498622E-01)
 number of electron      21.0000000 magnetization 
 augmentation part       -0.2874753 magnetization 

 Broyden mixing:
  rms(total) = 0.71123E-01    rms(broyden)= 0.71123E-01
  rms(prec ) = 0.77772E-01
  weight for this iteration     100.00

 eigenvalues of (default mixing * dielectric matrix)
  average eigenvalue GAMMA=   1.6954
  1.0345  2.3562

 Free energy of the ion-electron system (eV)
  ---------------------------------------------------
  alpha Z        PSCENC =        -0.30602968
  Ewald energy   TEWEN  =     17001.63325294
  -Hartree energ DENC   =    -17288.35029379
  -exchange      EXHF   =         0.00000000
  -V(xc)+E(xc)   XCENC  =      -184.75465957
  PAW double counting   =       248.91599316      -25.25434219
  entropy T*S    EENTRO =        -0.00258010
  eigenvalues    EBANDS =      -151.86371430
  atomic energy  EATOM  =       374.76784764
  Solvation  Ediel_sol  =         0.00000000
  ---------------------------------------------------
  free energy    TOTEN  =       -25.21452588 eV

  energy without entropy =      -25.21194579  energy(sigma->0) =      -25.21323584


--------------------------------------------------------------------------------------------------------




--------------------------------------- Iteration      1(   8)  ---------------------------------------


    POTLOK:  cpu time    0.0695: real time    0.0711
    SETDIJ:  cpu time    0.0893: real time    0.0894
     EDDAV:  cpu time    1.3119: real time    1.3139
       DOS:  cpu time    0.0005: real time    0.0005
    CHARGE:  cpu time    0.1843: real time    0.1845
    MIXING:  cpu time    0.0093: real time    0.0093
    --------------------------------------------
      LOOP:  cpu time    1.6649: real time    1.6687

 eigenvalue-minimisations  :   885
 total energy-change (2. order) : 0.3323712E-01  (-0.1060621E-01)
 number of electron      21.0000000 magnetization 
 augmentation part       -0.2903128 magnetization 

 Broyden mixing:
  rms(total) = 0.26189E-01    rms(broyden)= 0.26189E-01
  rms(prec ) = 0.32276E-01
  weight for this iteration     100.00

 eigenvalues of (default mixing * dielectric matrix)
  average eigenvalue GAMMA=   1.5915
  2.4526  1.5136  0.8082

 Free energy of the ion-electron system (eV)
  ---------------------------------------------------
  alpha Z        PSCENC =        -0.30602968
  Ewald energy   TEWEN  =     17001.63325294
  -Hartree energ DENC   =    -17291.11586136
  -exchange      EXHF   =         0.00000000
  -V(xc)+E(xc)   XCENC  =      -184.57295812
  PAW double counting   =       248.95139444      -25.30315805
  entropy T*S    EENTRO =        -0.00231167
  eigenvalues    EBANDS =      -149.23346489
  atomic energy  EATOM  =       374.76784764
  Solvation  Ediel_sol  =         0.00000000
  ---------------------------------------------------
  free energy    TOTEN  =       -25.18128876 eV

  energy without entropy =      -25.17897709  energy(sigma->0) =      -25.18013293


--------------------------------------------------------------------------------------------------------




--------------------------------------- Iteration      1(   9)  ---------------------------------------


    POTLOK:  cpu time    0.0843: real time    0.0845
    SETDIJ:  cpu time    0.1010: real time    0.1012
     EDDAV:  cpu time    1.2461: real time    1.2494
       DOS:  cpu time    0.0005: real time    0.0005
    CHARGE:  cpu time    0.1852: real time    0.1854
    MIXING:  cpu time    0.0088: real time    0.0088
    --------------------------------------------
      LOOP:  cpu time    1.6260: real time    1.6299

 eigenvalue-minimisations  :   840
 total energy-change (2. order) : 0.6436954E-02  (-0.2625329E-02)
 number of electron      21.0000000 magnetization 
 augmentation part       -0.2912381 magnetization 

 Broyden mixing:
  rms(total) = 0.16438E-01    rms(broyden)= 0.16438E-01
  rms(prec ) = 0.22235E-01
  weight for this iteration     100.00

 eigenvalues of (default mixing * dielectric matrix)
  average eigenvalue GAMMA=   1.5234
  2.4841  2.0095  0.8726  0.7276

 Free energy of the ion-electron system (eV)
  ---------------------------------------------------
  alpha Z        PSCENC =        -0.30602968
  Ewald energy   TEWEN  =     17001.63325294
  -Hartree energ DENC   =    -17292.24427580
  -exchange      EXHF   =         0.00000000
  -V(xc)+E(xc)   XCENC  =      -184.52658017
  PAW double counting   =       249.00152135      -25.35936874
  entropy T*S    EENTRO =        -0.00227722
  eigenvalues    EBANDS =      -148.13894212
  atomic energy  EATOM  =       374.76784764
  Solvation  Ediel_sol  =         0.00000000
  ---------------------------------------------------
  free energy    TOTEN  =       -25.17485181 eV

  energy without entropy =      -25.17257459  energy(sigma->0) =      -25.17371320


--------------------------------------------------------------------------------------------------------




--------------------------------------- Iteration      1(  10)  ---------------------------------------


    POTLOK:  cpu time    0.0803: real time    0.0805
    SETDIJ:  cpu time    0.1012: real time    0.1013
     EDDAV:  cpu time    1.2581: real time    1.2677
       DOS:  cpu time    0.0006: real time    0.0006
    CHARGE:  cpu time    0.1929: real time    0.1931
    MIXING:  cpu time    0.0061: real time    0.0061
    --------------------------------------------
      LOOP:  cpu time    1.6392: real time    1.6494

 eigenvalue-minimisations  :   875
 total energy-change (2. order) : 0.5454954E-02  (-0.7004094E-03)
 number of electron      21.0000000 magnetization 
 augmentation part       -0.2916652 magnetization 

 Broyden mixing:
  rms(total) = 0.98318E-02    rms(broyden)= 0.98318E-02
  rms(prec ) = 0.16504E-01
  weight for this iteration     100.00

 eigenvalues of (default mixing * dielectric matrix)
  average eigenvalue GAMMA=   1.5110
  2.4450  2.4450  1.1403  0.9379  0.5865

 Free energy of the ion-electron system (eV)
  ---------------------------------------------------
  alpha Z        PSCENC =        -0.30602968
  Ewald energy   TEWEN  =     17001.63325294
  -Hartree energ DENC   =    -17293.67203086
  -exchange      EXHF   =         0.00000000
  -V(xc)+E(xc)   XCENC  =      -184.49591181
  PAW double counting   =       249.06100344      -25.42465766
  entropy T*S    EENTRO =        -0.00213639
  eigenvalues    EBANDS =      -146.73073448
  atomic energy  EATOM  =       374.76784764
  Solvation  Ediel_sol  =         0.00000000
  ---------------------------------------------------
  free energy    TOTEN  =       -25.16939686 eV

  energy without entropy =      -25.16726047  energy(sigma->0) =      -25.16832866


--------------------------------------------------------------------------------------------------------




--------------------------------------- Iteration      1(  11)  ---------------------------------------


    POTLOK:  cpu time    0.0860: real time    0.0862
    SETDIJ:  cpu time    0.0971: real time    0.0983
     EDDAV:  cpu time    1.4205: real time    1.4224
       DOS:  cpu time    0.0005: real time    0.0005
    CHARGE:  cpu time    0.1564: real time    0.1567
    MIXING:  cpu time    0.0086: real time    0.0086
    --------------------------------------------
      LOOP:  cpu time    1.7691: real time    1.7727

 eigenvalue-minimisations  :   805
 total energy-change (2. order) : 0.4567496E-02  (-0.1991338E-03)
 number of electron      21.0000000 magnetization 
 augmentation part       -0.2917702 magnetization 

 Broyden mixing:
  rms(total) = 0.76315E-02    rms(broyden)= 0.76315E-02
  rms(prec ) = 0.13342E-01
  weight for this iteration     100.00

 eigenvalues of (default mixing * dielectric matrix)
  average eigenvalue GAMMA=   1.5763
  2.9062  2.7662  1.3907  1.0633  0.7464  0.5850

 Free energy of the ion-electron system (eV)
  ---------------------------------------------------
  alpha Z        PSCENC =        -0.30602968
  Ewald energy   TEWEN  =     17001.63325294
  -Hartree energ DENC   =    -17295.16865554
  -exchange      EXHF   =         0.00000000
  -V(xc)+E(xc)   XCENC  =      -184.47999623
  PAW double counting   =       249.08074500      -25.44698131
  entropy T*S    EENTRO =        -0.00203475
  eigenvalues    EBANDS =      -145.24297744
  atomic energy  EATOM  =       374.76784764
  Solvation  Ediel_sol  =         0.00000000
  ---------------------------------------------------
  free energy    TOTEN  =       -25.16482936 eV

  energy without entropy =      -25.16279461  energy(sigma->0) =      -25.16381199


--------------------------------------------------------------------------------------------------------




--------------------------------------- Iteration      1(  12)  ---------------------------------------


    POTLOK:  cpu time    0.0695: real time    0.0697
    SETDIJ:  cpu time    0.0906: real time    0.0906
     EDDAV:  cpu time    1.1796: real time    1.1814
       DOS:  cpu time    0.0009: real time    0.0013
    CHARGE:  cpu time    0.1917: real time    0.1919
    MIXING:  cpu time    0.0056: real time    0.0056
    --------------------------------------------
      LOOP:  cpu time    1.5379: real time    1.5405

 eigenvalue-minimisations  :   725
 total energy-change (2. order) : 0.7049478E-02  (-0.4297436E-03)
 number of electron      21.0000000 magnetization 
 augmentation part       -0.2915506 magnetization 

 Broyden mixing:
  rms(total) = 0.55233E-02    rms(broyden)= 0.55233E-02
  rms(prec ) = 0.99889E-02
  weight for this iteration     100.00

 eigenvalues of (default mixing * dielectric matrix)
  average eigenvalue GAMMA=   1.7657
  4.0602  2.6552  1.6537  1.6537  0.9592  0.7971  0.5808

 Free energy of the ion-electron system (eV)
  ---------------------------------------------------
  alpha Z        PSCENC =        -0.30602968
  Ewald energy   TEWEN  =     17001.63325294
  -Hartree energ DENC   =    -17298.14747963
  -exchange      EXHF   =         0.00000000
  -V(xc)+E(xc)   XCENC  =      -184.45828288
  PAW double counting   =       249.06672359      -25.43398052
  entropy T*S    EENTRO =        -0.00178664
  eigenvalues    EBANDS =      -142.27804471
  atomic energy  EATOM  =       374.76784764
  Solvation  Ediel_sol  =         0.00000000
  ---------------------------------------------------
  free energy    TOTEN  =       -25.15777988 eV

  energy without entropy =      -25.15599325  energy(sigma->0) =      -25.15688656


--------------------------------------------------------------------------------------------------------




--------------------------------------- Iteration      1(  13)  ---------------------------------------


    POTLOK:  cpu time    0.0836: real time    0.0844
    SETDIJ:  cpu time    0.1008: real time    0.1009
     EDDAV:  cpu time    1.1634: real time    1.1665
       DOS:  cpu time    0.0005: real time    0.0005
    CHARGE:  cpu time    0.1820: real time    0.1839
    MIXING:  cpu time    0.0065: real time    0.0065
    --------------------------------------------
      LOOP:  cpu time    1.5369: real time    1.5427

 eigenvalue-minimisations  :   790
 total energy-change (2. order) : 0.4062713E-02  (-0.2216078E-03)
 number of electron      21.0000000 magnetization 
 augmentation part       -0.2914244 magnetization 

 Broyden mixing:
  rms(total) = 0.43487E-02    rms(broyden)= 0.43487E-02
  rms(prec ) = 0.79327E-02
  weight for this iteration     100.00

 eigenvalues of (default mixing * dielectric matrix)
  average eigenvalue GAMMA=   2.0046
  6.0169  2.7859  2.2763  1.3084  1.3084  0.9806  0.7782  0.5822

 Free energy of the ion-electron system (eV)
  ---------------------------------------------------
  alpha Z        PSCENC =        -0.30602968
  Ewald energy   TEWEN  =     17001.63325294
  -Hartree energ DENC   =    -17300.75866942
  -exchange      EXHF   =         0.00000000
  -V(xc)+E(xc)   XCENC  =      -184.44423361
  PAW double counting   =       249.01329165      -25.37765739
  entropy T*S    EENTRO =        -0.00166532
  eigenvalues    EBANDS =      -139.67985398
  atomic energy  EATOM  =       374.76784764
  Solvation  Ediel_sol  =         0.00000000
  ---------------------------------------------------
  free energy    TOTEN  =       -25.15371717 eV

  energy without entropy =      -25.15205185  energy(sigma->0) =      -25.15288451


--------------------------------------------------------------------------------------------------------




--------------------------------------- Iteration      1(  14)  ---------------------------------------


    POTLOK:  cpu time    0.0836: real time    0.0839
    SETDIJ:  cpu time    0.1017: real time    0.1019
     EDDAV:  cpu time    1.0607: real time    1.0637
       DOS:  cpu time    0.0006: real time    0.0006
    CHARGE:  cpu time    0.1904: real time    0.1906
    MIXING:  cpu time    0.0065: real time    0.0065
    --------------------------------------------
      LOOP:  cpu time    1.4436: real time    1.4472

 eigenvalue-minimisations  :   695
 total energy-change (2. order) : 0.3672312E-02  (-0.1868424E-03)
 number of electron      21.0000000 magnetization 
 augmentation part       -0.2913166 magnetization 

 Broyden mixing:
  rms(total) = 0.35502E-02    rms(broyden)= 0.35502E-02
  rms(prec ) = 0.64581E-02
  weight for this iteration     100.00

 eigenvalues of (default mixing * dielectric matrix)
  average eigenvalue GAMMA=   2.2435
  7.6992  3.3803  2.4914  1.9268  1.2833  0.5823  1.0230  1.0230  0.7825

 Free energy of the ion-electron system (eV)
  ---------------------------------------------------
  alpha Z        PSCENC =        -0.30602968
  Ewald energy   TEWEN  =     17001.63325294
  -Hartree energ DENC   =    -17303.20635856
  -exchange      EXHF   =         0.00000000
  -V(xc)+E(xc)   XCENC  =      -184.43674573
  PAW double counting   =       248.96347883      -25.32456350
  entropy T*S    EENTRO =        -0.00158925
  eigenvalues    EBANDS =      -137.23933755
  atomic energy  EATOM  =       374.76784764
  Solvation  Ediel_sol  =         0.00000000
  ---------------------------------------------------
  free energy    TOTEN  =       -25.15004486 eV

  energy without entropy =      -25.14845561  energy(sigma->0) =      -25.14925023


--------------------------------------------------------------------------------------------------------




--------------------------------------- Iteration      1(  15)  ---------------------------------------


    POTLOK:  cpu time    0.0843: real time    0.0845
    SETDIJ:  cpu time    0.0961: real time    0.0971
     EDDAV:  cpu time    1.1148: real time    1.1166
       DOS:  cpu time    0.0005: real time    0.0005
    CHARGE:  cpu time    0.1882: real time    0.1885
    MIXING:  cpu time    0.0055: real time    0.0055
    --------------------------------------------
      LOOP:  cpu time    1.4894: real time    1.4926

 eigenvalue-minimisations  :   790
 total energy-change (2. order) : 0.2630840E-02  (-0.7003853E-04)
 number of electron      21.0000000 magnetization 
 augmentation part       -0.2912618 magnetization 

 Broyden mixing:
  rms(total) = 0.29258E-02    rms(broyden)= 0.29258E-02
  rms(prec ) = 0.52875E-02
  weight for this iteration     100.00

 eigenvalues of (default mixing * dielectric matrix)
  average eigenvalue GAMMA=   2.4726
  7.8443  5.8187  2.6344  2.2043  1.4631  1.4631  0.5825  0.9693  0.9693  0.7773

 Free energy of the ion-electron system (eV)
  ---------------------------------------------------
  alpha Z        PSCENC =        -0.30602968
  Ewald energy   TEWEN  =     17001.63325294
  -Hartree energ DENC   =    -17305.79848636
  -exchange      EXHF   =         0.00000000
  -V(xc)+E(xc)   XCENC  =      -184.42827303
  PAW double counting   =       248.94999375      -25.30990057
  entropy T*S    EENTRO =        -0.00153511
  eigenvalues    EBANDS =      -134.65428360
  atomic energy  EATOM  =       374.76784764
  Solvation  Ediel_sol  =         0.00000000
  ---------------------------------------------------
  free energy    TOTEN  =       -25.14741402 eV

  energy without entropy =      -25.14587891  energy(sigma->0) =      -25.14664646


--------------------------------------------------------------------------------------------------------




--------------------------------------- Iteration      1(  16)  ---------------------------------------


    POTLOK:  cpu time    0.0878: real time    0.0880
    SETDIJ:  cpu time    0.0986: real time    0.0987
     EDDAV:  cpu time    1.0495: real time    1.0510
       DOS:  cpu time    0.0005: real time    0.0005
    CHARGE:  cpu time    0.1828: real time    0.1831
    MIXING:  cpu time    0.0055: real time    0.0055
    --------------------------------------------
      LOOP:  cpu time    1.4247: real time    1.4269

 eigenvalue-minimisations  :   690
 total energy-change (2. order) :-0.2435354E-03  (-0.1014158E-03)
 number of electron      21.0000000 magnetization 
 augmentation part       -0.2912913 magnetization 

 Broyden mixing:
  rms(total) = 0.23423E-02    rms(broyden)= 0.23423E-02
  rms(prec ) = 0.44987E-02
  weight for this iteration     100.00

 eigenvalues of (default mixing * dielectric matrix)
  average eigenvalue GAMMA=   2.6204
 10.6931  5.6878  2.6317  2.5471  1.4995  1.4995  0.5824  0.7803  0.9515  0.9758
  0.9758

 Free energy of the ion-electron system (eV)
  ---------------------------------------------------
  alpha Z        PSCENC =        -0.30602968
  Ewald energy   TEWEN  =     17001.63325294
  -Hartree energ DENC   =    -17308.01667167
  -exchange      EXHF   =         0.00000000
  -V(xc)+E(xc)   XCENC  =      -184.42666678
  PAW double counting   =       248.97872997      -25.34017697
  entropy T*S    EENTRO =        -0.00149982
  eigenvalues    EBANDS =      -132.43644318
  atomic energy  EATOM  =       374.76784764
  Solvation  Ediel_sol  =         0.00000000
  ---------------------------------------------------
  free energy    TOTEN  =       -25.14765755 eV

  energy without entropy =      -25.14615774  energy(sigma->0) =      -25.14690764


--------------------------------------------------------------------------------------------------------




--------------------------------------- Iteration      1(  17)  ---------------------------------------


    POTLOK:  cpu time    0.0820: real time    0.0822
    SETDIJ:  cpu time    0.1026: real time    0.1040
     EDDAV:  cpu time    1.0772: real time    1.0788
       DOS:  cpu time    0.0005: real time    0.0005
    CHARGE:  cpu time    0.1894: real time    0.1897
    MIXING:  cpu time    0.0062: real time    0.0062
    --------------------------------------------
      LOOP:  cpu time    1.4579: real time    1.4614

 eigenvalue-minimisations  :   715
 total energy-change (2. order) : 0.6934850E-03  (-0.4155316E-04)
 number of electron      21.0000000 magnetization 
 augmentation part       -0.2912326 magnetization 

 Broyden mixing:
  rms(total) = 0.19503E-02    rms(broyden)= 0.19503E-02
  rms(prec ) = 0.36620E-02
  weight for this iteration     100.00

 eigenvalues of (default mixing * dielectric matrix)
  average eigenvalue GAMMA=   2.8696
 12.9261  6.4907  2.8435  2.6376  1.9408  1.9408  0.5824  0.7777  1.1659  1.0664
  1.0664  0.9968

 Free energy of the ion-electron system (eV)
  ---------------------------------------------------
  alpha Z        PSCENC =        -0.30602968
  Ewald energy   TEWEN  =     17001.63325294
  -Hartree energ DENC   =    -17309.92657327
  -exchange      EXHF   =         0.00000000
  -V(xc)+E(xc)   XCENC  =      -184.42242193
  PAW double counting   =       248.98612352      -25.34857930
  entropy T*S    EENTRO =        -0.00146131
  eigenvalues    EBANDS =      -130.52912267
  atomic energy  EATOM  =       374.76784764
  Solvation  Ediel_sol  =         0.00000000
  ---------------------------------------------------
  free energy    TOTEN  =       -25.14696407 eV

  energy without entropy =      -25.14550275  energy(sigma->0) =      -25.14623341


--------------------------------------------------------------------------------------------------------




--------------------------------------- Iteration      1(  18)  ---------------------------------------


    POTLOK:  cpu time    0.0857: real time    0.0858
    SETDIJ:  cpu time    0.1014: real time    0.1015
     EDDAV:  cpu time    1.0864: real time    1.0881
       DOS:  cpu time    0.0007: real time    0.0007
    CHARGE:  cpu time    0.1885: real time    0.1887
    MIXING:  cpu time    0.0066: real time    0.0066
    --------------------------------------------
      LOOP:  cpu time    1.4692: real time    1.4715

 eigenvalue-minimisations  :   720
 total energy-change (2. order) : 0.2524502E-03  (-0.3207192E-04)
 number of electron      21.0000000 magnetization 
 augmentation part       -0.2912145 magnetization 

 Broyden mixing:
  rms(total) = 0.15250E-02    rms(broyden)= 0.15250E-02
  rms(prec ) = 0.29225E-02
  weight for this iteration     100.00

 eigenvalues of (default mixing * dielectric matrix)
  average eigenvalue GAMMA=   3.0498
 15.4884  6.9780  3.5047  2.7135  2.3444  1.7755  0.5824  1.2647  1.2647  0.7780
  0.9994  0.9994  0.9536

 Free energy of the ion-electron system (eV)
  ---------------------------------------------------
  alpha Z        PSCENC =        -0.30602968
  Ewald energy   TEWEN  =     17001.63325294
  -Hartree energ DENC   =    -17312.04420156
  -exchange      EXHF   =         0.00000000
  -V(xc)+E(xc)   XCENC  =      -184.42132596
  PAW double counting   =       248.96159116      -25.32281426
  entropy T*S    EENTRO =        -0.00143898
  eigenvalues    EBANDS =      -128.41359291
  atomic energy  EATOM  =       374.76784764
  Solvation  Ediel_sol  =         0.00000000
  ---------------------------------------------------
  free energy    TOTEN  =       -25.14671162 eV

  energy without entropy =      -25.14527264  energy(sigma->0) =      -25.14599213


--------------------------------------------------------------------------------------------------------




--------------------------------------- Iteration      1(  19)  ---------------------------------------


    POTLOK:  cpu time    0.0870: real time    0.0872
    SETDIJ:  cpu time    0.0970: real time    0.0970
     EDDAV:  cpu time    1.1207: real time    1.1226
       DOS:  cpu time    0.0005: real time    0.0005
    CHARGE:  cpu time    0.1925: real time    0.1927
    MIXING:  cpu time    0.0108: real time    0.0108
    --------------------------------------------
      LOOP:  cpu time    1.5085: real time    1.5109

 eigenvalue-minimisations  :   755
 total energy-change (2. order) : 0.1958857E-03  (-0.1123668E-04)
 number of electron      21.0000000 magnetization 
 augmentation part       -0.2911994 magnetization 

 Broyden mixing:
  rms(total) = 0.13355E-02    rms(broyden)= 0.13355E-02
  rms(prec ) = 0.25437E-02
  weight for this iteration     100.00

 eigenvalues of (default mixing * dielectric matrix)
  average eigenvalue GAMMA=   3.4015
 18.3018  8.6501  4.3364  3.1926  2.5739  2.2092  1.6152  0.5824  1.2974  0.7779
  1.0500  1.0500  0.9923  0.9923

 Free energy of the ion-electron system (eV)
  ---------------------------------------------------
  alpha Z        PSCENC =        -0.30602968
  Ewald energy   TEWEN  =     17001.63325294
  -Hartree energ DENC   =    -17313.35087656
  -exchange      EXHF   =         0.00000000
  -V(xc)+E(xc)   XCENC  =      -184.42156782
  PAW double counting   =       248.94847482      -25.30881681
  entropy T*S    EENTRO =        -0.00142945
  eigenvalues    EBANDS =      -127.10737080
  atomic energy  EATOM  =       374.76784764
  Solvation  Ediel_sol  =         0.00000000
  ---------------------------------------------------
  free energy    TOTEN  =       -25.14651573 eV

  energy without entropy =      -25.14508628  energy(sigma->0) =      -25.14580101


--------------------------------------------------------------------------------------------------------




--------------------------------------- Iteration      1(  20)  ---------------------------------------


    POTLOK:  cpu time    0.0866: real time    0.0868
    SETDIJ:  cpu time    0.0973: real time    0.0974
     EDDAV:  cpu time    1.1289: real time    1.1306
       DOS:  cpu time    0.0006: real time    0.0006
    CHARGE:  cpu time    0.1906: real time    0.1908
    MIXING:  cpu time    0.0084: real time    0.0084
    --------------------------------------------
      LOOP:  cpu time    1.5125: real time    1.5147

 eigenvalue-minimisations  :   760
 total energy-change (2. order) : 0.3266447E-03  (-0.7592886E-05)
 number of electron      21.0000000 magnetization 
 augmentation part       -0.2911763 magnetization 

 Broyden mixing:
  rms(total) = 0.11116E-02    rms(broyden)= 0.11116E-02
  rms(prec ) = 0.20161E-02
  weight for this iteration     100.00

 eigenvalues of (default mixing * dielectric matrix)
  average eigenvalue GAMMA=   3.6510
 20.9708  9.9149  4.6396  4.1570  2.6297  2.3213  1.7319  1.7319  0.5824  0.7780
  1.2026  1.0488  1.0488  0.9752  1.0322

 Free energy of the ion-electron system (eV)
  ---------------------------------------------------
  alpha Z        PSCENC =        -0.30602968
  Ewald energy   TEWEN  =     17001.63325294
  -Hartree energ DENC   =    -17315.26171337
  -exchange      EXHF   =         0.00000000
  -V(xc)+E(xc)   XCENC  =      -184.41977406
  PAW double counting   =       248.94957753      -25.30970178
  entropy T*S    EENTRO =        -0.00141378
  eigenvalues    EBANDS =      -125.19823453
  atomic energy  EATOM  =       374.76784764
  Solvation  Ediel_sol  =         0.00000000
  ---------------------------------------------------
  free energy    TOTEN  =       -25.14618909 eV

  energy without entropy =      -25.14477531  energy(sigma->0) =      -25.14548220


--------------------------------------------------------------------------------------------------------




--------------------------------------- Iteration      1(  21)  ---------------------------------------


    POTLOK:  cpu time    0.0880: real time    0.0883
    SETDIJ:  cpu time    0.0972: real time    0.0974
     EDDAV:  cpu time    1.1261: real time    1.1279
       DOS:  cpu time    0.0006: real time    0.0017
    CHARGE:  cpu time    0.1890: real time    0.1892
    MIXING:  cpu time    0.0079: real time    0.0079
    --------------------------------------------
      LOOP:  cpu time    1.5087: real time    1.5123

 eigenvalue-minimisations  :   720
 total energy-change (2. order) : 0.1145789E-03  (-0.3574487E-05)
 number of electron      21.0000000 magnetization 
 augmentation part       -0.2911941 magnetization 

 Broyden mixing:
  rms(total) = 0.87574E-03    rms(broyden)= 0.87574E-03
  rms(prec ) = 0.16271E-02
  weight for this iteration     100.00

 eigenvalues of (default mixing * dielectric matrix)
  average eigenvalue GAMMA=   3.8685
 23.3539 11.6685  5.7431  4.3235  2.6752  2.5833  1.8354  1.8354  0.5824  0.7779
  1.2457  1.2457  1.0321  1.0321  0.9812  0.9812

 Free energy of the ion-electron system (eV)
  ---------------------------------------------------
  alpha Z        PSCENC =        -0.30602968
  Ewald energy   TEWEN  =     17001.63325294
  -Hartree energ DENC   =    -17316.43523360
  -exchange      EXHF   =         0.00000000
  -V(xc)+E(xc)   XCENC  =      -184.41997548
  PAW double counting   =       248.96298951      -25.32385741
  entropy T*S    EENTRO =        -0.00141675
  eigenvalues    EBANDS =      -124.02365168
  atomic energy  EATOM  =       374.76784764
  Solvation  Ediel_sol  =         0.00000000
  ---------------------------------------------------
  free energy    TOTEN  =       -25.14607451 eV

  energy without entropy =      -25.14465776  energy(sigma->0) =      -25.14536613


--------------------------------------------------------------------------------------------------------




--------------------------------------- Iteration      1(  22)  ---------------------------------------


    POTLOK:  cpu time    0.0889: real time    0.0921
    SETDIJ:  cpu time    0.0879: real time    0.0879
     EDDAV:  cpu time    1.0456: real time    1.0472
       DOS:  cpu time    0.0005: real time    0.0005
    CHARGE:  cpu time    0.1878: real time    0.1881
    MIXING:  cpu time    0.0071: real time    0.0071
    --------------------------------------------
      LOOP:  cpu time    1.4178: real time    1.4229

 eigenvalue-minimisations  :   685
 total energy-change (2. order) : 0.2095839E-03  (-0.6863953E-05)
 number of electron      21.0000000 magnetization 
 augmentation part       -0.2911778 magnetization 

 Broyden mixing:
  rms(total) = 0.76056E-03    rms(broyden)= 0.76056E-03
  rms(prec ) = 0.13580E-02
  weight for this iteration     100.00

 eigenvalues of (default mixing * dielectric matrix)
  average eigenvalue GAMMA=   4.0241
 26.1778 12.4701  6.4116  4.5779  2.7765  2.5814  2.0719  2.0719  1.5788  0.5824
  1.2951  0.7780  1.0489  1.0489  0.9944  0.9944  0.9501

 Free energy of the ion-electron system (eV)
  ---------------------------------------------------
  alpha Z        PSCENC =        -0.30602968
  Ewald energy   TEWEN  =     17001.63325294
  -Hartree energ DENC   =    -17317.49777241
  -exchange      EXHF   =         0.00000000
  -V(xc)+E(xc)   XCENC  =      -184.41823324
  PAW double counting   =       248.96293286      -25.32407905
  entropy T*S    EENTRO =        -0.00140934
  eigenvalues    EBANDS =      -122.96237464
  atomic energy  EATOM  =       374.76784764
  Solvation  Ediel_sol  =         0.00000000
  ---------------------------------------------------
  free energy    TOTEN  =       -25.14586492 eV

  energy without entropy =      -25.14445558  energy(sigma->0) =      -25.14516025


--------------------------------------------------------------------------------------------------------




--------------------------------------- Iteration      1(  23)  ---------------------------------------


    POTLOK:  cpu time    0.0805: real time    0.0807
    SETDIJ:  cpu time    0.0878: real time    0.0879
     EDDAV:  cpu time    1.1082: real time    1.1098
       DOS:  cpu time    0.0005: real time    0.0005
    CHARGE:  cpu time    0.1888: real time    0.1892
    MIXING:  cpu time    0.0093: real time    0.0093
    --------------------------------------------
      LOOP:  cpu time    1.4750: real time    1.4774

 eigenvalue-minimisations  :   760
 total energy-change (2. order) :-0.7176979E-04  (-0.1494088E-05)
 number of electron      21.0000000 magnetization 
 augmentation part       -0.2911704 magnetization 

 Broyden mixing:
  rms(total) = 0.62797E-03    rms(broyden)= 0.62797E-03
  rms(prec ) = 0.10987E-02
  weight for this iteration     100.00

 eigenvalues of (default mixing * dielectric matrix)
  average eigenvalue GAMMA=   4.2619
 30.4907 13.0324  7.3690  4.8241  3.1977  2.7507  2.3960  2.1343  1.6089  0.5824
  1.3363  0.7780  1.1626  1.0423  1.0423  0.9788  0.9788  1.0094

 Free energy of the ion-electron system (eV)
  ---------------------------------------------------
  alpha Z        PSCENC =        -0.30602968
  Ewald energy   TEWEN  =     17001.63325294
  -Hartree energ DENC   =    -17318.34560424
  -exchange      EXHF   =         0.00000000
  -V(xc)+E(xc)   XCENC  =      -184.41798316
  PAW double counting   =       248.95442553      -25.31511729
  entropy T*S    EENTRO =        -0.00140388
  eigenvalues    EBANDS =      -122.11532455
  atomic energy  EATOM  =       374.76784764
  Solvation  Ediel_sol  =         0.00000000
  ---------------------------------------------------
  free energy    TOTEN  =       -25.14593669 eV

  energy without entropy =      -25.14453281  energy(sigma->0) =      -25.14523475


--------------------------------------------------------------------------------------------------------




--------------------------------------- Iteration      1(  24)  ---------------------------------------


    POTLOK:  cpu time    0.0852: real time    0.0854
    SETDIJ:  cpu time    0.0993: real time    0.0994
     EDDAV:  cpu time    1.0505: real time    1.0527
       DOS:  cpu time    0.0010: real time    0.0006
    CHARGE:  cpu time    0.1877: real time    0.1882
    MIXING:  cpu time    0.0057: real time    0.0057
    --------------------------------------------
      LOOP:  cpu time    1.4294: real time    1.4320

 eigenvalue-minimisations  :   685
 total energy-change (2. order) :-0.1418117E-03  (-0.2898769E-05)
 number of electron      21.0000000 magnetization 
 augmentation part       -0.2911710 magnetization 

 Broyden mixing:
  rms(total) = 0.50083E-03    rms(broyden)= 0.50083E-03
  rms(prec ) = 0.88052E-03
  weight for this iteration     100.00

 eigenvalues of (default mixing * dielectric matrix)
  average eigenvalue GAMMA=   4.4622
 32.9051 14.9803  8.0045  5.5012  3.5755  2.7762  2.5960  2.1180  1.7621  1.6791
  0.5824  1.2621  1.2621  0.7780  1.0431  1.0431  0.9761  0.9761  0.9599

 Free energy of the ion-electron system (eV)
  ---------------------------------------------------
  alpha Z        PSCENC =        -0.30602968
  Ewald energy   TEWEN  =     17001.63325294
  -Hartree energ DENC   =    -17318.85352957
  -exchange      EXHF   =         0.00000000
  -V(xc)+E(xc)   XCENC  =      -184.41895721
  PAW double counting   =       248.94994565      -25.31025290
  entropy T*S    EENTRO =        -0.00140362
  eigenvalues    EBANDS =      -121.60695176
  atomic energy  EATOM  =       374.76784764
  Solvation  Ediel_sol  =         0.00000000
  ---------------------------------------------------
  free energy    TOTEN  =       -25.14607851 eV

  energy without entropy =      -25.14467489  energy(sigma->0) =      -25.14537670


--------------------------------------------------------------------------------------------------------




--------------------------------------- Iteration      1(  25)  ---------------------------------------


    POTLOK:  cpu time    0.0873: real time    0.0876
    SETDIJ:  cpu time    0.1004: real time    0.1006
     EDDAV:  cpu time    1.0741: real time    1.0757
       DOS:  cpu time    0.0005: real time    0.0005
    CHARGE:  cpu time    0.2145: real time    0.2148
    MIXING:  cpu time    0.0075: real time    0.0075
    --------------------------------------------
      LOOP:  cpu time    1.4843: real time    1.4866

 eigenvalue-minimisations  :   715
 total energy-change (2. order) :-0.9037899E-04  (-0.1223449E-05)
 number of electron      21.0000000 magnetization 
 augmentation part       -0.2911631 magnetization 

 Broyden mixing:
  rms(total) = 0.42194E-03    rms(broyden)= 0.42194E-03
  rms(prec ) = 0.71312E-03
  weight for this iteration     100.00

 eigenvalues of (default mixing * dielectric matrix)
  average eigenvalue GAMMA=   4.7802
 37.1733 16.8932  8.7889  6.4682  3.7304  3.7304  2.6402  2.4377  2.0067  1.6805
  0.5824  1.3093  1.3093  0.7780  1.0498  1.0498  0.9645  0.9645  1.0235  1.0235

 Free energy of the ion-electron system (eV)
  ---------------------------------------------------
  alpha Z        PSCENC =        -0.30602968
  Ewald energy   TEWEN  =     17001.63325294
  -Hartree energ DENC   =    -17319.47020076
  -exchange      EXHF   =         0.00000000
  -V(xc)+E(xc)   XCENC  =      -184.41829113
  PAW double counting   =       248.94995967      -25.31026429
  entropy T*S    EENTRO =        -0.00139913
  eigenvalues    EBANDS =      -120.99104414
  atomic energy  EATOM  =       374.76784764
  Solvation  Ediel_sol  =         0.00000000
  ---------------------------------------------------
  free energy    TOTEN  =       -25.14616888 eV

  energy without entropy =      -25.14476975  energy(sigma->0) =      -25.14546932


--------------------------------------------------------------------------------------------------------




--------------------------------------- Iteration      1(  26)  ---------------------------------------


    POTLOK:  cpu time    0.0831: real time    0.0833
    SETDIJ:  cpu time    0.1018: real time    0.1019
     EDDAV:  cpu time    1.0520: real time    1.0535
       DOS:  cpu time    0.0010: real time    0.0007
    CHARGE:  cpu time    0.1900: real time    0.1907
    MIXING:  cpu time    0.0058: real time    0.0058
    --------------------------------------------
      LOOP:  cpu time    1.4337: real time    1.4360

 eigenvalue-minimisations  :   685
 total energy-change (2. order) :-0.1324150E-03  (-0.1467851E-05)
 number of electron      21.0000000 magnetization 
 augmentation part       -0.2911734 magnetization 

 Broyden mixing:
  rms(total) = 0.31834E-03    rms(broyden)= 0.31834E-03
  rms(prec ) = 0.54293E-03
  weight for this iteration     100.00

 eigenvalues of (default mixing * dielectric matrix)
  average eigenvalue GAMMA=   4.9699
 39.7189 19.1876  9.4445  7.2367  4.3304  3.7919  2.6900  2.5535  1.9518  1.9518
  1.5493  0.5824  1.3582  0.7780  1.1289  1.1289  1.0374  1.0374  0.9672  0.9672
  0.9762

 Free energy of the ion-electron system (eV)
  ---------------------------------------------------
  alpha Z        PSCENC =        -0.30602968
  Ewald energy   TEWEN  =     17001.63325294
  -Hartree energ DENC   =    -17319.79137966
  -exchange      EXHF   =         0.00000000
  -V(xc)+E(xc)   XCENC  =      -184.41892798
  PAW double counting   =       248.95792486      -25.31859783
  entropy T*S    EENTRO =        -0.00140109
  eigenvalues    EBANDS =      -120.66899049
  atomic energy  EATOM  =       374.76784764
  Solvation  Ediel_sol  =         0.00000000
  ---------------------------------------------------
  free energy    TOTEN  =       -25.14630130 eV

  energy without entropy =      -25.14490021  energy(sigma->0) =      -25.14560075


--------------------------------------------------------------------------------------------------------




--------------------------------------- Iteration      1(  27)  ---------------------------------------


    POTLOK:  cpu time    0.0848: real time    0.0850
    SETDIJ:  cpu time    0.1007: real time    0.1008
     EDDAV:  cpu time    1.1068: real time    1.1104
       DOS:  cpu time    0.0005: real time    0.0005
    CHARGE:  cpu time    0.1920: real time    0.1923
    MIXING:  cpu time    0.0064: real time    0.0064
    --------------------------------------------
      LOOP:  cpu time    1.4912: real time    1.4953

 eigenvalue-minimisations  :   695
 total energy-change (2. order) :-0.6270914E-04  (-0.3071637E-06)
 number of electron      21.0000000 magnetization 
 augmentation part       -0.2911671 magnetization 

 Broyden mixing:
  rms(total) = 0.25559E-03    rms(broyden)= 0.25559E-03
  rms(prec ) = 0.43850E-03
  weight for this iteration     100.00

 eigenvalues of (default mixing * dielectric matrix)
  average eigenvalue GAMMA=   5.2642
 44.6081 20.7657 10.7129  7.6888  5.0471  3.9723  2.9225  2.5781  2.5781  1.9892
  1.7019  0.5824  1.4415  1.2943  0.7780  1.1676  1.0424  1.0424  0.9631  0.9631
  0.9714  1.0022

 Free energy of the ion-electron system (eV)
  ---------------------------------------------------
  alpha Z        PSCENC =        -0.30602968
  Ewald energy   TEWEN  =     17001.63325294
  -Hartree energ DENC   =    -17320.15523772
  -exchange      EXHF   =         0.00000000
  -V(xc)+E(xc)   XCENC  =      -184.41828337
  PAW double counting   =       248.95652972      -25.31724431
  entropy T*S    EENTRO =        -0.00139831
  eigenvalues    EBANDS =      -120.30580091
  atomic energy  EATOM  =       374.76784764
  Solvation  Ediel_sol  =         0.00000000
  ---------------------------------------------------
  free energy    TOTEN  =       -25.14636401 eV

  energy without entropy =      -25.14496569  energy(sigma->0) =      -25.14566485


--------------------------------------------------------------------------------------------------------




--------------------------------------- Iteration      1(  28)  ---------------------------------------


    POTLOK:  cpu time    0.0878: real time    0.0880
    SETDIJ:  cpu time    0.0962: real time    0.0964
     EDDAV:  cpu time    1.0317: real time    1.0332
       DOS:  cpu time    0.0006: real time    0.0005
    CHARGE:  cpu time    0.1841: real time    0.1838
    MIXING:  cpu time    0.0132: real time    0.0137
    --------------------------------------------
      LOOP:  cpu time    1.4135: real time    1.4156

 eigenvalue-minimisations  :   660
 total energy-change (2. order) :-0.7572723E-04  (-0.5398051E-06)
 number of electron      21.0000000 magnetization 
 augmentation part       -0.2911660 magnetization 

 Broyden mixing:
  rms(total) = 0.20896E-03    rms(broyden)= 0.20896E-03
  rms(prec ) = 0.35396E-03
  weight for this iteration     100.00

 eigenvalues of (default mixing * dielectric matrix)
  average eigenvalue GAMMA=   5.3545
 48.5683 21.3497 11.6812  7.7792  5.4662  3.9324  3.1180  2.6707  2.4334  2.0665
  1.6595  1.6001  0.5824  1.2973  1.2226  0.7780  1.0445  1.0445  0.9722  0.9722
  0.9956  0.9956  0.9231

 Free energy of the ion-electron system (eV)
  ---------------------------------------------------
  alpha Z        PSCENC =        -0.30602968
  Ewald energy   TEWEN  =     17001.63325294
  -Hartree energ DENC   =    -17320.41969740
  -exchange      EXHF   =         0.00000000
  -V(xc)+E(xc)   XCENC  =      -184.41841506
  PAW double counting   =       248.95019346      -25.31057240
  entropy T*S    EENTRO =        -0.00139747
  eigenvalues    EBANDS =      -120.04162175
  atomic energy  EATOM  =       374.76784764
  Solvation  Ediel_sol  =         0.00000000
  ---------------------------------------------------
  free energy    TOTEN  =       -25.14643974 eV

  energy without entropy =      -25.14504227  energy(sigma->0) =      -25.14574100


--------------------------------------------------------------------------------------------------------




--------------------------------------- Iteration      1(  29)  ---------------------------------------


    POTLOK:  cpu time    0.0867: real time    0.0869
    SETDIJ:  cpu time    0.1025: real time    0.1027
     EDDAV:  cpu time    0.8825: real time    0.8840
       DOS:  cpu time    0.0006: real time    0.0006
    CHARGE:  cpu time    0.1879: real time    0.1882
    MIXING:  cpu time    0.0101: real time    0.0101
    --------------------------------------------
      LOOP:  cpu time    1.2703: real time    1.2724

 eigenvalue-minimisations  :   520
 total energy-change (2. order) :-0.2119157E-04  (-0.7320756E-07)
 number of electron      21.0000000 magnetization 
 augmentation part       -0.2911659 magnetization 

 Broyden mixing:
  rms(total) = 0.14711E-03    rms(broyden)= 0.14711E-03
  rms(prec ) = 0.29845E-03
  weight for this iteration     100.00

 eigenvalues of (default mixing * dielectric matrix)
  average eigenvalue GAMMA=   5.6971
 52.4823 24.6439 12.6072  9.0153  5.9001  4.7299  3.3346  2.8844  2.7057  2.3922
  2.0144  1.6968  0.5824  1.5061  1.2841  0.7780  1.1724  1.0439  1.0439  1.0148
  1.0148  0.9729  0.9729  0.9362

 Free energy of the ion-electron system (eV)
  ---------------------------------------------------
  alpha Z        PSCENC =        -0.30602968
  Ewald energy   TEWEN  =     17001.63325294
  -Hartree energ DENC   =    -17320.48489918
  -exchange      EXHF   =         0.00000000
  -V(xc)+E(xc)   XCENC  =      -184.41845522
  PAW double counting   =       248.95214625      -25.31262256
  entropy T*S    EENTRO =        -0.00139742
  eigenvalues    EBANDS =      -119.97630369
  atomic energy  EATOM  =       374.76784764
  Solvation  Ediel_sol  =         0.00000000
  ---------------------------------------------------
  free energy    TOTEN  =       -25.14646093 eV

  energy without entropy =      -25.14506351  energy(sigma->0) =      -25.14576222


--------------------------------------------------------------------------------------------------------




--------------------------------------- Iteration      1(  30)  ---------------------------------------


    POTLOK:  cpu time    0.0857: real time    0.0859
    SETDIJ:  cpu time    0.1020: real time    0.1022
     EDDAV:  cpu time    0.9525: real time    0.9539
       DOS:  cpu time    0.0005: real time    0.0005
    CHARGE:  cpu time    0.1873: real time    0.1876
    MIXING:  cpu time    0.0098: real time    0.0098
    --------------------------------------------
      LOOP:  cpu time    1.3379: real time    1.3399

 eigenvalue-minimisations  :   565
 total energy-change (2. order) :-0.3014440E-04  (-0.2957069E-06)
 number of electron      21.0000000 magnetization 
 augmentation part       -0.2911676 magnetization 

 Broyden mixing:
  rms(total) = 0.11130E-03    rms(broyden)= 0.11130E-03
  rms(prec ) = 0.25257E-03
  weight for this iteration     100.00

 eigenvalues of (default mixing * dielectric matrix)
  average eigenvalue GAMMA=   5.7696
 56.7158 24.7101 13.6860  8.9462  6.4000  4.7241  3.5833  3.0151  2.6415  2.4163
  2.0688  1.6326  1.6326  0.5824  1.3076  0.7780  1.1979  1.1979  1.0418  1.0418
  1.0078  1.0078  0.9723  0.9723  0.9596

 Free energy of the ion-electron system (eV)
  ---------------------------------------------------
  alpha Z        PSCENC =        -0.30602968
  Ewald energy   TEWEN  =     17001.63325294
  -Hartree energ DENC   =    -17320.61686044
  -exchange      EXHF   =         0.00000000
  -V(xc)+E(xc)   XCENC  =      -184.41856888
  PAW double counting   =       248.95406776      -25.31459254
  entropy T*S    EENTRO =        -0.00139804
  eigenvalues    EBANDS =      -119.84420984
  atomic energy  EATOM  =       374.76784764
  Solvation  Ediel_sol  =         0.00000000
  ---------------------------------------------------
  free energy    TOTEN  =       -25.14649107 eV

  energy without entropy =      -25.14509303  energy(sigma->0) =      -25.14579205


--------------------------------------------------------------------------------------------------------




--------------------------------------- Iteration      1(  31)  ---------------------------------------


    POTLOK:  cpu time    0.0864: real time    0.0866
    SETDIJ:  cpu time    0.1020: real time    0.1021
     EDDAV:  cpu time    0.7966: real time    0.7980
[...]
      7      -5.7187      2.00000
      8      -4.4211      2.00000
      9      -2.2932      2.00000
     10      -0.3713      0.00000
     11       1.3005      0.00000
     12       2.3132      0.00000
     13       2.7384      0.00000
     14       2.7992      0.00000
     15       2.8125      0.00000

 k-point     3 :       0.1538    0.0000   -0.0000
  band No.  band energies     occupation 
      1     -11.6722      2.00000
      2     -11.2681      2.00000
      3     -10.5974      2.00000
      4      -9.6527      2.00000
      5      -8.4576      2.00000
      6      -7.0449      2.00000
      7      -5.3437      2.00000
      8      -4.0640      2.00000
      9      -1.9389      2.00000
     10      -0.0371      0.00000
     11       1.5901      0.00000
     12       2.5343      0.00000
     13       2.8953      0.00000
     14       3.0743      0.00000
     15       3.1396      0.00000

 k-point     4 :       0.2308    0.0000    0.0000
  band No.  band energies     occupation 
      1     -11.0325      2.00000
      2     -10.6301      2.00000
      3      -9.9622      2.00000
      4      -9.0210      2.00000
      5      -7.8305      2.00000
      6      -6.4233      2.00000
      7      -4.7236      2.00000
      8      -3.4746      2.00000
      9      -1.3878      0.00032
     10       0.0051      0.00000
     11       0.5005      0.00000
     12       0.9333      0.00000
     13       1.2507      0.00000
     14       2.1462      0.00000
     15       2.3524      0.00000

 k-point     5 :       0.3077    0.0000   -0.0000
  band No.  band energies     occupation 
      1     -10.1414      2.00000
      2      -9.7416      2.00000
      3      -9.0775      2.00000
      4      -8.1418      2.00000
      5      -6.9584      2.00000
      6      -5.5616      2.00000
      7      -3.8747      2.00000
      8      -2.7156      2.00000
      9      -2.1235      2.00000
     10      -1.6885      2.00000
     11      -1.0426      0.00000
     12      -0.3196      0.00000
     13      -0.1211      0.00000
     14       1.0044      0.00000
     15       1.4988      0.00000

 k-point     6 :       0.3846    0.0000   -0.0000
  band No.  band energies     occupation 
      1      -9.0035      2.00000
      2      -8.6071      2.00000
      3      -7.9486      2.00000
      4      -7.0213      2.00000
      5      -5.8518      2.00000
      6      -4.4941      2.00000
      7      -4.1748      2.00000
      8      -3.8123      2.00000
      9      -3.2124      2.00000
     10      -2.6575      2.00000
     11      -2.1126      2.00000
     12      -1.4715      0.21708
     13      -1.0162      0.00000
     14       0.3280      0.00000
     15       0.6504      0.00000

 k-point     7 :       0.4615    0.0000    0.0000
  band No.  band energies     occupation 
      1      -7.6247      2.00000
      2      -7.2338      2.00000
      3      -6.5867      2.00000
      4      -6.0192      2.00000
      5      -5.6974      2.00000
      6      -5.5919      2.00000
      7      -4.9944      2.00000
      8      -4.5769      2.00000
      9      -4.0097      2.00000
     10      -3.0906      2.00000
     11      -2.7307      2.00000
     12      -1.4689      0.19152
     13      -1.3504      0.00000
     14      -0.2124      0.00000
     15       0.2356      0.00000

 k-point     8 :       0.0769    0.0769   -0.0000
  band No.  band energies     occupation 
      1     -11.8004      2.00000
      2     -11.3960      2.00000
      3     -10.7248      2.00000
      4      -9.7793      2.00000
      5      -8.5834      2.00000
      6      -7.1697      2.00000
      7      -5.4685      2.00000
      8      -4.1828      2.00000
      9      -2.0560      2.00000
     10      -0.1443      0.00000
     11       1.5154      0.00000
     12       2.5422      0.00000
     13       2.9921      0.00000
     14       3.0476      0.00000
     15       3.0718      0.00000

 k-point     9 :       0.1538    0.0769   -0.0000
  band No.  band energies     occupation 
      1     -11.2880      2.00000
      2     -10.8850      2.00000
      3     -10.2159      2.00000
      4      -9.2733      2.00000
      5      -8.0809      2.00000
      6      -6.6715      2.00000
      7      -4.9707      2.00000
      8      -3.7089      2.00000
      9      -1.5944      1.97515
     10       0.2467      0.00000
     11       1.3982      0.00000
     12       1.9297      0.00000
     13       2.1440      0.00000
     14       2.5681      0.00000
     15       2.9392      0.00000

 k-point    10 :       0.2308    0.0769   -0.0000
  band No.  band energies     occupation 
      1     -10.5227      2.00000
      2     -10.1217      2.00000
      3      -9.4559      2.00000
      4      -8.5178      2.00000
      5      -7.3312      2.00000
      6      -5.9293      2.00000
      7      -4.2335      2.00000
      8      -3.0134      2.00000
      9      -1.1775      0.00000
     10      -0.7885      0.00000
     11      -0.3339      0.00000
     12       0.2278      0.00000
     13       0.9316      0.00000
     14       1.2482      0.00000
     15       2.0789      0.00000

 k-point    11 :       0.3077    0.0769   -0.0000
  band No.  band energies     occupation 
      1      -9.5081      2.00000
      2      -9.1101      2.00000
      3      -8.4490      2.00000
      4      -7.5176      2.00000
      5      -6.3405      2.00000
      6      -4.9554      2.00000
      7      -3.3203      2.00000
      8      -3.1013      2.00000
      9      -2.7217      2.00000
     10      -2.1336      2.00000
     11      -1.7717      2.00000
     12      -1.0613      0.00000
     13      -0.0121      0.00000
     14       0.2224      0.00000
     15       1.3225      0.00000

 k-point    12 :       0.3846    0.0769    0.0000
  band No.  band energies     occupation 
      1      -8.2496      2.00000
      2      -7.8558      2.00000
      3      -7.2018      2.00000
      4      -6.2828      2.00000
      5      -5.1486      2.00000
      6      -5.0089      2.00000
      7      -4.6456      2.00000
      8      -4.1136      2.00000
      9      -3.6700      2.00000
     10      -2.9794      2.00000
     11      -2.0079      2.00000
     12      -1.7738      2.00000
     13      -0.8535      0.00000
     14      -0.4626      0.00000
     15       0.9343      0.00000

 k-point    13 :       0.4615    0.0769   -0.0000
  band No.  band energies     occupation 
      1      -6.7582      2.00000
      2      -6.7510      2.00000
      3      -6.3846      2.00000
      4      -6.3573      2.00000
      5      -5.7664      2.00000
      6      -5.6685      2.00000
      7      -4.8899      2.00000
      8      -4.7689      2.00000
      9      -3.8125      2.00000
     10      -3.3540      2.00000
     11      -2.2665      2.00000
     12      -2.0805      2.00000
     13      -0.6931      0.00000
     14      -0.3542      0.00000
     15       0.3993      0.00000

 k-point    14 :       0.1538    0.1538   -0.0000
  band No.  band energies     occupation 
      1     -10.6499      2.00000
      2     -10.2486      2.00000
      3      -9.5823      2.00000
      4      -8.6434      2.00000
      5      -7.4558      2.00000
      6      -6.0523      2.00000
      7      -4.3547      2.00000
      8      -3.1241      2.00000
      9      -1.0730      0.00000
     10       0.2330      0.00000
     11       0.5081      0.00000
     12       0.8275      0.00000
     13       1.0643      0.00000
     14       1.4256      0.00000
     15       1.5575      0.00000

 k-point    15 :       0.2308    0.1538   -0.0000
  band No.  band energies     occupation 
      1      -9.7611      2.00000
      2      -9.3623      2.00000
      3      -8.6999      2.00000
      4      -7.7666      2.00000
      5      -6.5866      2.00000
      6      -5.1946      2.00000
      7      -3.5138      2.00000
      8      -2.3754      2.00000
      9      -1.7663      2.00000
     10      -1.3373      0.00000
     11      -0.7126      0.00000
     12      -0.3631      0.00000
     13      -0.0092      0.00000
     14       0.2096      0.00000
     15       0.4465      0.00000

 k-point    16 :       0.3077    0.1538   -0.0000
  band No.  band energies     occupation 
      1      -8.6259      2.00000
      2      -8.2306      2.00000
      3      -7.5739      2.00000
      4      -6.6494      2.00000
      5      -5.4841      2.00000
      6      -4.1345      2.00000
      7      -3.8098      2.00000
      8      -3.4513      2.00000
      9      -2.8578      2.00000
     10      -2.3060      2.00000
     11      -1.7615      2.00000
     12      -1.2012      0.00000
     13      -0.7116      0.00000
     14      -0.6727      0.00000
     15      -0.2604      0.00000

 k-point    17 :       0.3846    0.1538   -0.0000
  band No.  band energies     occupation 
      1      -7.2503      2.00000
      2      -6.8606      2.00000
      3      -6.2152      2.00000
      4      -5.6474      2.00000
      5      -5.3273      2.00000
      6      -5.2288      2.00000
      7      -4.6293      2.00000
      8      -4.2193      2.00000
      9      -3.6501      2.00000
     10      -2.7392      2.00000
     11      -2.3755      2.00000
     12      -1.1694      0.00000
     13      -1.0728      0.00000
     14      -0.9487      0.00000
     15      -0.6066      0.00000

 k-point    18 :       0.2308    0.2308   -0.0000
  band No.  band energies     occupation 
      1      -8.7515      2.00000
      2      -8.3557      2.00000
      3      -7.6983      2.00000
      4      -6.7723      2.00000
      5      -5.6038      2.00000
      6      -4.2355      2.00000
      7      -2.6588      2.00000
      8      -2.3904      2.00000
      9      -2.3733      2.00000
     10      -2.0951      2.00000
     11      -1.9033      2.00000
     12      -1.4630      0.14064
     13      -1.2697      0.00000
     14      -0.9051      0.00000
     15      -0.4682      0.00000

 k-point    19 :       0.3077    0.2308    0.0000
  band No.  band energies     occupation 
      1      -7.4990      2.00000
      2      -7.1077      2.00000
      3      -6.4578      2.00000
      4      -5.5455      2.00000
      5      -4.4188      2.00000
      6      -4.2831      2.00000
      7      -3.9165      2.00000
      8      -3.4051      2.00000
      9      -2.9894      2.00000
     10      -2.7201      2.00000
     11      -2.4020      2.00000
     12      -2.2321      2.00000
     13      -1.7706      2.00000
     14      -1.3752      0.00008
     15      -0.9653      0.00000

 k-point    20 :       0.3846    0.2308    0.0000
  band No.  band energies     occupation 
      1      -6.0144      2.00000
      2      -6.0075      2.00000
      3      -5.6407      2.00000
      4      -5.6174      2.00000
      5      -5.0256      2.00000
      6      -4.9456      2.00000
      7      -4.1632      2.00000
      8      -4.0560      2.00000
      9      -3.1315      2.00000
     10      -2.8474      2.00000
     11      -2.6406      2.00000
     12      -2.4720      2.00000
     13      -1.9659      2.00000
     14      -1.6753      1.99999
     15      -1.1928      0.00000

 k-point    21 :       0.3077    0.3077   -0.0000
  band No.  band energies     occupation 
      1      -6.1335      2.00000
      2      -5.7486      2.00000
      3      -5.1124      2.00000
      4      -4.5425      2.00000
      5      -4.5383      2.00000
      6      -4.2405      2.00000
      7      -4.1681      2.00000
      8      -4.1348      2.00000
      9      -3.5706      2.00000
     10      -3.5201      2.00000
     11      -3.2223      2.00000
     12      -2.7626      2.00000
     13      -2.3850      2.00000
     14      -1.7987      2.00000
     15      -1.2180      0.00000


--------------------------------------------------------------------------------------------------------


 soft charge-density along one line, spin component           1
         0         1         2         3         4         5         6         7         8         9
 total charge-density along one line
 
 pseudopotential strength for first ion, spin component:           1
  8.768   0.006  -0.000  -0.002   0.000  -0.000  -0.000   0.000
  0.006  -0.000  -0.000   0.000   0.000   0.000   0.000  -0.000
 -0.000  -0.000   1.971  -0.000  -0.000  -0.001   0.000   0.000
 -0.002   0.000  -0.000   1.972   0.000   0.000  -0.001  -0.000
  0.000   0.000  -0.000   0.000   1.971   0.000  -0.000  -0.001
 -0.000   0.000  -0.001   0.000   0.000  -0.018   0.000   0.000
 -0.000   0.000   0.000  -0.001  -0.000   0.000  -0.018  -0.000
  0.000  -0.000   0.000  -0.000  -0.001   0.000  -0.000  -0.018
 total augmentation occupancy for first ion, spin component:           1
  1.469  -0.284  -0.000  -0.030   0.000   0.000  -0.041   0.000
 -0.284   0.316  -0.000  -0.141   0.000   0.000   0.040  -0.000
  0.000  -0.000   0.617   0.000  -0.000  -0.111  -0.000   0.000
 -0.030  -0.141   0.000   0.594  -0.000  -0.000  -0.093   0.000
  0.000   0.000  -0.000  -0.000   0.617   0.000   0.000  -0.111
  0.000   0.000  -0.111  -0.000   0.000   0.023   0.000  -0.000
 -0.041   0.040   0.000  -0.093   0.000   0.000   0.019  -0.000
  0.000  -0.000   0.000   0.000  -0.111  -0.000  -0.000   0.023


------------------------ aborting loop because EDIFF is reached ----------------------------------------


    CHARGE:  cpu time    0.1852: real time    0.1868
    FORLOC:  cpu time    0.0067: real time    0.0067
    FORNL :  cpu time    0.6781: real time    0.6803
    STRESS:  cpu time    2.1373: real time    2.1405
    FORCOR:  cpu time    0.0837: real time    0.0838
    FORHAR:  cpu time    0.0247: real time    0.0247
    MIXING:  cpu time    0.0067: real time    0.0067
    OFIELD:  cpu time    0.0001: real time    0.0001

  FORCE on cell =-STRESS in cart. coord.  units (eV):
  Direction    XX          YY          ZZ          XY          YZ          ZX
  --------------------------------------------------------------------------------------
  Alpha Z    -0.30603    -0.30603    -0.30603
  Ewald   17330.78185 17330.78188-17659.93195    -0.00000    -0.00000     0.00001
  Hartree 17320.86499 17320.86499-17320.30291     0.00000     0.00000    -0.00000
  E(xc)     -58.19305   -58.19305   -58.83908    -0.00000     0.00000    -0.00000
  Local  -34820.21255-34820.21255 34812.39119     0.00000     0.00000    -0.00000
  n-local   128.20596   134.18225   135.45460    -0.18457    -0.57680     1.26647
  augment    -7.69594    -7.69594    -7.92061    -0.00000    -0.00000     0.00000
  Kinetic   158.11338    39.63377   100.75790     7.97888     0.06905    -1.10864
  Fock        0.00000     0.00000     0.00000     0.00000     0.00000     0.00000
  -------------------------------------------------------------------------------------
  Total      -4.69305    -4.69305     1.30312     0.00000     0.00000     0.00000
  in kB     -13.98131   -13.98131     3.88220     0.00000     0.00000     0.00000
  external pressure =       -8.03 kB  Pullay stress =        0.00 kB


 VOLUME and BASIS-vectors are now :
 -----------------------------------------------------------------------------
  energy-cutoff  :      450.00
  volume of cell :      537.80
      direct lattice vectors                 reciprocal lattice vectors
     2.607300145 -1.505325125  0.000000000     0.383538505  0.000000000  0.000000000
     0.000000000  3.010650250  0.000000000     0.191769253  0.332154158  0.000000000
    -0.000000000  0.000000000 68.512039442     0.000000000  0.000000000  0.014595975

  length of vectors
     3.010650723  3.010650250 68.512039442     0.383538505  0.383538565  0.014595975


 FORCES acting on ions
    electron-ion (+dipol)            ewald-force                    non-local-force                 convergence-correction
 -----------------------------------------------------------------------------------------------
   0.288E-06 0.574E-07 0.482E+03   -.223E-05 0.244E-05 -.480E+03   0.433E-16 -.111E-15 -.168E+01   -.451E-13 0.525E-12 0.127E-04
   -.395E-08 -.136E-07 -.180E+00   0.113E-06 -.131E-06 0.788E-01   -.605E-18 0.173E-17 0.176E+00   0.479E-12 -.178E-12 0.658E-04
   -.359E-06 -.439E-07 -.483E+03   0.271E-05 -.299E-05 0.481E+03   -.162E-16 0.000E+00 0.235E+01   0.208E-13 -.268E-12 -.113E-03
   0.147E-04 -.255E-04 0.161E+03   -.461E-05 0.798E-05 -.161E+03   -.156E-18 0.347E-17 0.160E+00   -.598E-12 0.119E-11 -.258E-03
   0.150E-04 -.258E-04 -.320E+03   -.473E-05 0.789E-05 0.321E+03   -.235E-16 -.208E-16 -.821E+00   -.871E-12 0.223E-11 0.245E-03
   -.147E-04 0.255E-04 0.321E+03   0.444E-05 -.777E-05 -.321E+03   -.342E-17 0.000E+00 -.504E-01   -.675E-13 -.103E-11 -.321E-03
   -.145E-04 0.252E-04 -.160E+03   0.431E-05 -.742E-05 0.160E+03   0.989E-19 0.000E+00 -.102E+00   0.320E-13 -.800E-12 0.303E-03
 -----------------------------------------------------------------------------------------------
   0.406E-06 -.646E-06 -.338E-01   0.294E-13 0.564E-14 0.000E+00   -.467E-18 -.127E-15 0.339E-01   -.105E-11 0.167E-11 -.646E-04
 
 
 POSITION                                       TOTAL-FORCE (eV/Angst)
 -----------------------------------------------------------------------------------
     -0.00000      0.00000     15.85926         0.000000      0.000000     -0.056059
     -0.00000      0.00000     22.48970        -0.000000      0.000000      0.075214
     -0.00000      0.00000     29.09061        -0.000000     -0.000000      0.349542
      1.73820     -0.00000     20.28974        -0.000000      0.000000      0.005040
      1.73820     -0.00000     26.94714         0.000000     -0.000000     -0.357095
      0.86910      1.50533     18.09105         0.000000     -0.000000     -0.041441
      0.86910      1.50533     24.71205        -0.000000      0.000000      0.024800
 -----------------------------------------------------------------------------------
    total drift:                                0.000000     -0.000001     -0.000010


--------------------------------------------------------------------------------------------------------



  FREE ENERGIE OF THE ION-ELECTRON SYSTEM (eV)
  ---------------------------------------------------
  free  energy   TOTEN  =       -25.14654946 eV

  energy  without entropy=      -25.14515285  energy(sigma->0) =      -25.14585116
 


--------------------------------------------------------------------------------------------------------


    POTLOK:  cpu time    0.1854: real time    0.1857


--------------------------------------------------------------------------------------------------------


 stress matrix after NEB project (eV)
     -4.69305      0.00000      0.00000
      0.00000     -4.69305      0.00000
     -0.00000      0.00000      1.30312
  FORCES: max atom, RMS     0.357095    0.193041
  FORCE total and by dimension    0.510739    0.357095
  Stress total and by dimension    6.763699    4.693054
     LOOP+:  cpu time   63.7471: real time   63.9310
    4ORBIT:  cpu time    0.0000: real time    0.0000

 total amount of memory used by VASP MPI-rank0    69182. kBytes
=======================================================================

   base      :      30000. kBytes
   nonl-proj :       4266. kBytes
   fftplans  :      21351. kBytes
   grid      :      10586. kBytes
   one-center:          6. kBytes
   wavefun   :       2973. kBytes
 
  
  
 General timing and accounting informations for this job:
 ========================================================
  
                  Total CPU time used (sec):       68.407
                            User time (sec):       66.122
                          System time (sec):        2.285
                         Elapsed time (sec):       68.694
  
                   Maximum memory used (kb):      160736.
                   Average memory used (kb):           0.
  
                          Minor page faults:       318051
                          Major page faults:            0
                 Voluntary context switches:          189
