 vasp.5.4.4.18Apr17-6-g9f103f2a35 (build Nov 15 2019 10:10:58) complex          
  
 executed on             LinuxIFC date 2025.01.15  09:03:21
 running on   16 total cores
 distrk:  each k-point on   16 cores,    1 groups
 distr:  one band on NCORES_PER_BAND=   4 cores,    4 groups


--------------------------------------------------------------------------------------------------------


 INCAR:
 POTCAR:   PAW_PBE O 08Apr2002                    
 POTCAR:   PAW_PBE Mg 05Jan2001                   
 POTCAR:   PAW_PBE Al 04Jan2001                   
 POTCAR:   PAW_PBE O 08Apr2002                    
   VRHFIN =O: s2p4                                                              
   LEXCH  = PE                                                                  
   EATOM  =   432.3788 eV,   31.7789 Ry                                         
                                                                                
   TITEL  = PAW_PBE O 08Apr2002                                                 
   LULTRA =        F    use ultrasoft PP ?                                      
   IUNSCR =        0    unscreen: 0-lin 1-nonlin 2-no                           
   RPACOR =     .000    partial core radius                                     
   POMASS =   16.000; ZVAL   =    6.000    mass and valenz                      
   RCORE  =    1.520    outmost cutoff radius                                   
   RWIGS  =    1.550; RWIGS  =     .820    wigner-seitz radius (au A)           
   ENMAX  =  400.000; ENMIN  =  300.000 eV                                      
   ICORE  =        2    local potential                                         
   LCOR   =        T    correct aug charges                                     
   LPAW   =        T    paw PP                                                  
   EAUG   =  605.392                                                            
   DEXC   =     .000                                                            
   RMAX   =    2.264    core radius for proj-oper                               
   RAUG   =    1.300    factor for augmentation sphere                          
   RDEP   =    1.550    radius for radial grids                                 
   QCUT   =   -5.520; QGAM   =   11.041    optimization parameters              
                                                                                
   Description                                                                  
     l     E      TYP  RCUT    TYP  RCUT                                        
     0   .000     23  1.200                                                     
     0  -.700     23  1.200                                                     
     1   .000     23  1.520                                                     
     1   .600     23  1.520                                                     
     2   .000      7  1.500                                                     
  local pseudopotential read in
  atomic valenz-charges read in
  non local Contribution for L=           0  read in
    real space projection operators read in
  non local Contribution for L=           0  read in
    real space projection operators read in
  non local Contribution for L=           1  read in
    real space projection operators read in
  non local Contribution for L=           1  read in
    real space projection operators read in
    PAW grid and wavefunctions read in
 
   number of l-projection  operators is LMAX  =           4
   number of lm-projection operators is LMMAX =           8
 
 POTCAR:   PAW_PBE Mg 05Jan2001                   
   VRHFIN =Mg: s2p0                                                             
   LEXCH  = PE                                                                  
   EATOM  =    23.0029 eV,    1.6907 Ry                                         
                                                                                
   TITEL  = PAW_PBE Mg 05Jan2001                                                
   LULTRA =        F    use ultrasoft PP ?                                      
   IUNSCR =        1    unscreen: 0-lin 1-nonlin 2-no                           
   RPACOR =    2.000    partial core radius                                     
   POMASS =   24.305; ZVAL   =    2.000    mass and valenz                      
   RCORE  =    2.000    outmost cutoff radius                                   
   RWIGS  =    2.880; RWIGS  =    1.524    wigner-seitz radius (au A)           
   ENMAX  =  210.012; ENMIN  =  157.509 eV                                      
   ICORE  =        2    local potential                                         
   LCOR   =        T    correct aug charges                                     
   LPAW   =        T    paw PP                                                  
   EAUG   =  274.554                                                            
   DEXC   =    -.136                                                            
   RMAX   =    3.182    core radius for proj-oper                               
   RAUG   =    1.300    factor for augmentation sphere                          
   RDEP   =    2.025    radius for radial grids                                 
   QCUT   =   -3.929; QGAM   =    7.858    optimization parameters              
                                                                                
   Description                                                                  
     l     E      TYP  RCUT    TYP  RCUT                                        
     0   .000     23  2.000                                                     
     0  2.000     23  2.000                                                     
     1   .000     23  2.000                                                     
     1  2.000     23  2.000                                                     
     2   .000     23  2.000                                                     
  local pseudopotential read in
  partial core-charges read in
  atomic valenz-charges read in
  non local Contribution for L=           0  read in
    real space projection operators read in
  non local Contribution for L=           0  read in
    real space projection operators read in
  non local Contribution for L=           1  read in
    real space projection operators read in
  non local Contribution for L=           1  read in
    real space projection operators read in
    PAW grid and wavefunctions read in
 
   number of l-projection  operators is LMAX  =           4
   number of lm-projection operators is LMMAX =           8
 
 POTCAR:   PAW_PBE Al 04Jan2001                   
   VRHFIN =Al: s2p1                                                             
   LEXCH  = PE                                                                  
   EATOM  =    53.5387 eV,    3.9350 Ry                                         
                                                                                
   TITEL  = PAW_PBE Al 04Jan2001                                                
   LULTRA =        F    use ultrasoft PP ?                                      
   IUNSCR =        1    unscreen: 0-lin 1-nonlin 2-no                           
   RPACOR =    1.500    partial core radius                                     
   POMASS =   26.982; ZVAL   =    3.000    mass and valenz                      
   RCORE  =    1.900    outmost cutoff radius                                   
   RWIGS  =    2.650; RWIGS  =    1.402    wigner-seitz radius (au A)           
   ENMAX  =  240.300; ENMIN  =  180.225 eV                                      
   ICORE  =        2    local potential                                         
   LCOR   =        T    correct aug charges                                     
   LPAW   =        T    paw PP                                                  
   EAUG   =  291.052                                                            
   DEXC   =    -.041                                                            
   RMAX   =    2.974    core radius for proj-oper                               
   RAUG   =    1.300    factor for augmentation sphere                          
   RDEP   =    1.966    radius for radial grids                                 
   QCUT   =   -4.203; QGAM   =    8.405    optimization parameters              
                                                                                
   Description                                                                  
     l     E      TYP  RCUT    TYP  RCUT                                        
     0   .000     23  1.900                                                     
     0   .000     23  1.900                                                     
     1   .000     23  1.900                                                     
     1  1.000     23  1.900                                                     
     2   .000      7  1.900                                                     
  local pseudopotential read in
  partial core-charges read in
  atomic valenz-charges read in
  non local Contribution for L=           0  read in
    real space projection operators read in
  non local Contribution for L=           0  read in
    real space projection operators read in
  non local Contribution for L=           1  read in
    real space projection operators read in
  non local Contribution for L=           1  read in
    real space projection operators read in
    PAW grid and wavefunctions read in
 
   number of l-projection  operators is LMAX  =           4
   number of lm-projection operators is LMMAX =           8
 

 ----------------------------------------------------------------------------- 
|                                                                             |
|  ADVICE TO THIS USER RUNNING 'VASP/VAMP'   (HEAR YOUR MASTER'S VOICE ...):  |
|                                                                             |
|      You have a (more or less) 'large supercell' and for larger cells       |
|      it might be more efficient to use real space projection operators      |
|      So try LREAL= Auto  in the INCAR   file.                               |
|      Mind: If you want to do a very accurate calculations keep the          |
|      reciprocal projection scheme          (i.e. LREAL=.FALSE.)             |
|                                                                             |
 ----------------------------------------------------------------------------- 

 PAW_PBE O 08Apr2002                    :
 energy of atom  1       EATOM= -432.3788
 kinetic energy error for atom=    0.0208 (will be added to EATOM!!)
 PAW_PBE Mg 05Jan2001                   :
 energy of atom  2       EATOM=  -23.0029
 kinetic energy error for atom=    0.0000 (will be added to EATOM!!)
 PAW_PBE Al 04Jan2001                   :
 energy of atom  3       EATOM=  -53.5387
 kinetic energy error for atom=    0.0002 (will be added to EATOM!!)
 
 
 POSCAR: Layer20                                 
  positions in direct lattice
  velocities in cartesian coordinates
 exchange correlation table for  LEXCH =        8
   RHO(1)=    0.500       N(1)  =     2000
   RHO(2)=  100.500       N(2)  =     4000

 VTST: version 3.2, (02/03/18)

 CHAIN: initializing optimizer
 
 OPT: Using VASP Conjugate-Gradient optimizer
 CHAIN: Read ICHAIN            0
 
 POSCAR: Layer20                                 
  positions in direct lattice
  velocities in cartesian coordinates
 


--------------------------------------------------------------------------------------------------------


 ion  position               nearest neighbor table
   1  0.542  0.458  0.497-  14 2.09  14 2.09  14 2.09  15 2.10  15 2.10  15 2.10
   2  0.541  0.459  0.599-  16 2.09  16 2.09  16 2.09  17 2.09  17 2.10  17 2.10
   3  0.543  0.457  0.701-  18 2.09  18 2.09  18 2.09  19 2.10  19 2.10  19 2.10
   4  0.209  0.791  0.464-  14 2.09  14 2.09  14 2.09  10 2.10  10 2.10  10 2.11
   5  0.875  0.125  0.531-  15 2.09  15 2.09  15 2.09  11 2.10  11 2.10  11 2.10
   6  0.208  0.792  0.565-  11 2.09  11 2.09  11 2.09  16 2.10  16 2.10  16 2.10
   7  0.875  0.125  0.633-  17 2.09  17 2.09  17 2.09  12 2.09  12 2.10  12 2.10
   8  0.209  0.791  0.667-  12 2.09  12 2.09  12 2.09  18 2.10  18 2.10  18 2.10
   9  0.876  0.124  0.734-  19 2.09  19 2.09  19 2.09  13 2.13  13 2.13  13 2.13
  10  0.543  0.457  0.446-   4 2.10   4 2.10   4 2.11  22 2.92  22 2.92  22 2.93  14 3.01  14 3.01
                            14 3.01
  11  0.542  0.458  0.548-   6 2.09   6 2.09   6 2.09   5 2.10   5 2.10   5 2.10  16 2.99  15 2.99
                            16 2.99  16 2.99  15 2.99  15 2.99
  12  0.542  0.458  0.650-   8 2.09   8 2.09   8 2.09   7 2.09   7 2.10   7 2.10  17 2.99  17 2.99
                            18 2.99  18 2.99  17 2.99  18 2.99
  13  0.543  0.457  0.752-   9 2.13   9 2.13   9 2.13  19 3.03  19 3.03  19 3.03
  14  0.876  0.124  0.481-   1 2.09   1 2.09   1 2.09   4 2.09   4 2.09   4 2.09  15 2.99  15 2.99
                            15 2.99  10 3.01  10 3.01  10 3.01
  15  0.209  0.791  0.514-   5 2.09   5 2.09   5 2.09   1 2.10   1 2.10   1 2.10  14 2.99  11 2.99
                            11 2.99  11 2.99  14 2.99  14 2.99
  16  0.875  0.125  0.582-   2 2.09   2 2.09   2 2.09   6 2.10   6 2.10   6 2.10  17 2.99  17 2.99
                            11 2.99  17 2.99  11 2.99  11 2.99
  17  0.208  0.792  0.616-   7 2.09   7 2.09   7 2.09   2 2.09   2 2.10   2 2.10  16 2.99  16 2.99
                            16 2.99  12 2.99  12 2.99  12 2.99
  18  0.876  0.124  0.684-   3 2.09   3 2.09   3 2.09   8 2.10   8 2.10   8 2.10  12 2.99  12 2.99
                            19 2.99  19 2.99  12 2.99  19 2.99
  19  0.210  0.790  0.718-   9 2.09   9 2.09   9 2.09   3 2.10   3 2.10   3 2.10  18 2.99  18 2.99
                            18 2.99  13 3.03  13 3.03  13 3.03
  20  0.887  0.113  0.228-  25 2.84  25 2.84  25 2.85
  21  0.889  0.111  0.321-  23 2.82  23 2.82  23 2.82  26 2.82  26 2.84  26 2.84
  22  0.880  0.120  0.414-  24 2.80  24 2.80  24 2.80  10 2.92  10 2.92  10 2.93
  23  0.556  0.444  0.290-  25 2.81  25 2.81  21 2.82  21 2.82  21 2.82  25 2.82
  24  0.548  0.452  0.383-  22 2.80  26 2.80  22 2.80  22 2.80  26 2.82  26 2.82
  25  0.221  0.779  0.259-  23 2.81  23 2.81  23 2.82  20 2.84  20 2.84  20 2.85
  26  0.218  0.782  0.352-  24 2.80  24 2.82  24 2.82  21 2.82  21 2.84  21 2.84
 
  LATTYP: Found a hexagonal cell.
 ALAT       =     2.9287464874
 C/A-ratio  =    24.8630553426
  
  Lattice vectors:
  
 A1 = (   2.5363690000,  -1.4643730000,   0.0000000000)
 A2 = (   0.0000000000,   2.9287460000,   0.0000000000)
 A3 = (   0.0000000000,   0.0000000000,  72.8175860000)


Analysis of symmetry for initial positions (statically):
=====================================================================
 Subroutine PRICEL returns:
 Original cell was already a primitive cell.
 

 Routine SETGRP: Setting up the symmetry group for a 
 hexagonal supercell.


 Subroutine GETGRP returns: Found  2 space group operations
 (whereof  2 operations were pure point group operations)
 out of a pool of 24 trial point group operations.


The static configuration has the point symmetry C_1h.


Analysis of symmetry for dynamics (positions and initial velocities):
=====================================================================
 Subroutine PRICEL returns:
 Original cell was already a primitive cell.
 

 Routine SETGRP: Setting up the symmetry group for a 
 hexagonal supercell.


 Subroutine GETGRP returns: Found  2 space group operations
 (whereof  2 operations were pure point group operations)
 out of a pool of 24 trial point group operations.


The dynamic configuration has the point symmetry C_1h.


Analysis of constrained symmetry for selective dynamics:
=====================================================================
 Subroutine PRICEL returns:
 Original cell was already a primitive cell.
 

 Routine SETGRP: Setting up the symmetry group for a 
 hexagonal supercell.


 Subroutine GETGRP returns: Found  2 space group operations
 (whereof  2 operations were pure point group operations)
 out of a pool of 24 trial point group operations.


The constrained configuration has the point symmetry C_1h.


 Subroutine INISYM returns: Found  2 space group operations
 (whereof  2 operations are pure point group operations),
 and found     1 'primitive' translations

 
 
 KPOINTS: K-Spacing Value to Generate K-Mesh: 0.02

Automatic generation of k-mesh.
Space group operators:
 irot       det(A)        alpha          n_x          n_y          n_z        tau_x        tau_y        tau_z
    1     1.000000     0.000001     1.000000     0.000000     0.000000     0.000000     0.000000     0.000000
    2    -1.000000   180.000000     0.866025     0.500000     0.000000     0.000000     0.000000     0.000000
 
 Subroutine IBZKPT returns following result:
 ===========================================
 
 Found     49 irreducible k-points:
 
 Following reciprocal coordinates:
            Coordinates               Weight
  0.000000  0.000000  0.000000      1.000000
  0.076923  0.000000  0.000000      4.000000
  0.153846  0.000000  0.000000      4.000000
  0.230769  0.000000  0.000000      4.000000
  0.307692  0.000000  0.000000      4.000000
  0.384615  0.000000  0.000000      4.000000
  0.461538  0.000000  0.000000      4.000000
  0.076923  0.076923  0.000000      2.000000
  0.153846  0.076923  0.000000      4.000000
  0.230769  0.076923  0.000000      4.000000
  0.307692  0.076923  0.000000      4.000000
  0.384615  0.076923  0.000000      4.000000
  0.461538  0.076923  0.000000      4.000000
 -0.461538  0.076923  0.000000      4.000000
 -0.384615  0.076923  0.000000      4.000000
 -0.307692  0.076923  0.000000      4.000000
 -0.230769  0.076923  0.000000      4.000000
 -0.153846  0.076923  0.000000      4.000000
 -0.076923  0.076923  0.000000      2.000000
  0.153846  0.153846  0.000000      2.000000
  0.230769  0.153846  0.000000      4.000000
  0.307692  0.153846  0.000000      4.000000
  0.384615  0.153846  0.000000      4.000000
  0.461538  0.153846  0.000000      4.000000
 -0.461538  0.153846  0.000000      4.000000
 -0.384615  0.153846  0.000000      4.000000
 -0.307692  0.153846  0.000000      4.000000
 -0.230769  0.153846  0.000000      4.000000
 -0.153846  0.153846  0.000000      2.000000
  0.230769  0.230769  0.000000      2.000000
  0.307692  0.230769  0.000000      4.000000
  0.384615  0.230769  0.000000      4.000000
  0.461538  0.230769  0.000000      4.000000
 -0.461538  0.230769  0.000000      4.000000
 -0.384615  0.230769  0.000000      4.000000
 -0.307692  0.230769  0.000000      4.000000
 -0.230769  0.230769  0.000000      2.000000
  0.307692  0.307692  0.000000      2.000000
  0.384615  0.307692  0.000000      4.000000
  0.461538  0.307692  0.000000      4.000000
 -0.461538  0.307692  0.000000      4.000000
 -0.384615  0.307692  0.000000      4.000000
 -0.307692  0.307692  0.000000      2.000000
  0.384615  0.384615  0.000000      2.000000
  0.461538  0.384615  0.000000      4.000000
 -0.461538  0.384615  0.000000      4.000000
 -0.384615  0.384615  0.000000      2.000000
  0.461538  0.461538  0.000000      2.000000
 -0.461538  0.461538  0.000000      2.000000
 
 Following cartesian coordinates:
            Coordinates               Weight
  0.000000  0.000000  0.000000      1.000000
  0.030328  0.000000  0.000000      4.000000
  0.060656  0.000000  0.000000      4.000000
  0.090984  0.000000  0.000000      4.000000
  0.121312  0.000000  0.000000      4.000000
  0.151640  0.000000  0.000000      4.000000
  0.181968  0.000000  0.000000      4.000000
  0.045492  0.026265  0.000000      2.000000
  0.075820  0.026265  0.000000      4.000000
  0.106148  0.026265  0.000000      4.000000
  0.136476  0.026265  0.000000      4.000000
  0.166804  0.026265  0.000000      4.000000
  0.197132  0.026265  0.000000      4.000000
 -0.166804  0.026265  0.000000      4.000000
 -0.136476  0.026265  0.000000      4.000000
 -0.106148  0.026265  0.000000      4.000000
 -0.075820  0.026265  0.000000      4.000000
 -0.045492  0.026265  0.000000      4.000000
 -0.015164  0.026265  0.000000      2.000000
  0.090984  0.052530  0.000000      2.000000
  0.121312  0.052530  0.000000      4.000000
  0.151640  0.052530  0.000000      4.000000
  0.181968  0.052530  0.000000      4.000000
  0.212296  0.052530  0.000000      4.000000
 -0.151640  0.052530  0.000000      4.000000
 -0.121312  0.052530  0.000000      4.000000
 -0.090984  0.052530  0.000000      4.000000
 -0.060656  0.052530  0.000000      4.000000
 -0.030328  0.052530  0.000000      2.000000
  0.136476  0.078795  0.000000      2.000000
  0.166804  0.078795  0.000000      4.000000
  0.197132  0.078795  0.000000      4.000000
  0.227460  0.078795  0.000000      4.000000
 -0.136476  0.078795  0.000000      4.000000
 -0.106148  0.078795  0.000000      4.000000
 -0.075820  0.078795  0.000000      4.000000
 -0.045492  0.078795  0.000000      2.000000
  0.181968  0.105059  0.000000      2.000000
  0.212296  0.105059  0.000000      4.000000
  0.242624  0.105059  0.000000      4.000000
 -0.121312  0.105059  0.000000      4.000000
 -0.090984  0.105059  0.000000      4.000000
 -0.060656  0.105059  0.000000      2.000000
  0.227460  0.131324  0.000000      2.000000
  0.257788  0.131324  0.000000      4.000000
 -0.106148  0.131324  0.000000      4.000000
 -0.075820  0.131324  0.000000      2.000000
  0.272952  0.157589  0.000000      2.000000
 -0.090984  0.157589  0.000000      2.000000
 


--------------------------------------------------------------------------------------------------------




 Dimension of arrays:
   k-points           NKPTS =     49   k-points in BZ     NKDIM =     49   number of bands    NBANDS=     64
   number of dos      NEDOS =    301   number of ions     NIONS =     26
   non local maximal  LDIM  =      4   non local SUM 2l+1 LMDIM =      8
   total plane-waves  NPLWV = 322560
   max r-space proj   IRMAX =      1   max aug-charges    IRDMAX= 202829
   dimension x,y,z NGX =    24 NGY =   24 NGZ =  560
   dimension x,y,z NGXF=    48 NGYF=   48 NGZF= 1120
   support grid    NGXF=    96 NGYF=   96 NGZF= 2240
   ions per type =               9  10   7
   NGX,Y,Z   is equivalent  to a cutoff of  13.62, 13.62, 12.79 a.u.
   NGXF,Y,Z  is equivalent  to a cutoff of  27.25, 27.25, 25.57 a.u.

 SYSTEM =  unknown system                          
 POSCAR =  Layer20                                 

 Startparameter for this run:
   NWRITE =      2    write-flag & timer
   PREC   = accura    normal or accurate (medium, high low for compatibility)
   ISTART =      0    job   : 0-new  1-cont  2-samecut
   ICHARG =     11    charge: 1-file 2-atom 10-const
   ISPIN  =      1    spin polarized calculation?
   LNONCOLLINEAR =      F non collinear calculations
   LSORBIT =      F    spin-orbit coupling
   INIWAV =      1    electr: 0-lowe 1-rand  2-diag
   LASPH  =      T    aspherical Exc in radial PAW
   METAGGA=      F    non-selfconsistent MetaGGA calc.

 Electronic Relaxation 1
   ENCUT  =  520.0 eV  38.22 Ry    6.18 a.u.   5.45  5.45135.39*2*pi/ulx,y,z
   ENINI  =  520.0     initial cutoff
   ENAUG  =  605.4 eV  augmentation charge cutoff
   NELM   =     90;   NELMIN=  6; NELMDL=  0     # of ELM steps 
   EDIFF  = 0.1E-07   stopping-criterion for ELM
   LREAL  =      F    real-space projection
   NLSPLINE    = F    spline interpolate recip. space projectors
   LCOMPAT=      F    compatible to vasp.4.4
   GGA_COMPAT  = T    GGA compatible to vasp.4.4-vasp.4.6
   LMAXPAW     = -100 max onsite density
   LMAXMIX     =    2 max onsite mixed and CHGCAR
   VOSKOWN=      0    Vosko Wilk Nusair interpolation
   ROPT   =    0.00000   0.00000   0.00000
 Ionic relaxation
   EDIFFG = -.2E-01   stopping-criterion for IOM
   NSW    =      0    number of steps for IOM
   NBLOCK =      1;   KBLOCK =      1    inner block; outer block 
   IBRION =     -1    ionic relax: 0-MD 1-quasi-New 2-CG
   NFREE  =      1    steps in history (QN), initial steepest desc. (CG)
   ISIF   =      2    stress and relaxation
   IWAVPR =     10    prediction:  0-non 1-charg 2-wave 3-comb
   ISYM   =      2    0-nonsym 1-usesym 2-fastsym
   LCORR  =      T    Harris-Foulkes like correction to forces

   POTIM  = 0.5000    time-step for ionic-motion
   TEIN   =    0.0    initial temperature
   TEBEG  =    0.0;   TEEND  =   0.0 temperature during run
   SMASS  =  -3.00    Nose mass-parameter (am)
   estimated Nose-frequenzy (Omega)   =  0.10E-29 period in steps =****** mass=  -0.196E-27a.u.
   SCALEE = 1.0000    scale energy and forces
   NPACO  =    256;   APACO  = 16.0  distance and # of slots for P.C.
   PSTRESS=    0.0 pullay stress

  Mass of Ions in am
   POMASS =  16.00 24.30 26.98
  Ionic Valenz
   ZVAL   =   6.00  2.00  3.00
  Atomic Wigner-Seitz radii
   RWIGS  =  -1.00 -1.00 -1.00
  virtual crystal weights 
   VCA    =   1.00  1.00  1.00
   NELECT =      95.0000    total number of electrons
   NUPDOWN=      -1.0000    fix difference up-down

 DOS related values:
   EMIN   =  10.00;   EMAX   =-10.00  energy-range for DOS
   EFERMI =   0.00
   ISMEAR =     0;   SIGMA  =   0.05  broadening in eV -4-tet -1-fermi 0-gaus

 Electronic relaxation 2 (details)
   IALGO  =     38    algorithm
   LDIAG  =      T    sub-space diagonalisation (order eigenvalues)
   LSUBROT=      F    optimize rotation matrix (better conditioning)
   TURBO    =      0    0=normal 1=particle mesh
   IRESTART =      0    0=no restart 2=restart with 2 vectors
   NREBOOT  =      0    no. of reboots
   NMIN     =      0    reboot dimension
   EREF     =   0.00    reference energy to select bands
   IMIX   =      4    mixing-type and parameters
     AMIX     =   0.40;   BMIX     =  1.00
     AMIX_MAG =   1.60;   BMIX_MAG =  1.00
     AMIN     =   0.01
     WC   =   100.;   INIMIX=   1;  MIXPRE=   1;  MAXMIX= -45

 Intra band minimization:
   WEIMIN = 0.0000     energy-eigenvalue tresh-hold
   EBREAK =  0.39E-10  absolut break condition
   DEPER  =   0.30     relativ break condition  

   TIME   =   0.40     timestep for ELM

  volume/ion in A,a.u.               =      20.80       140.40
  Fermi-wavevector in a.u.,A,eV,Ry     =   0.916796  1.732493 11.435892  0.840514
  Thomas-Fermi vector in A             =   2.041692
 
 Write flags
   LWAVE        =      F    write WAVECAR
   LDOWNSAMPLE  =      F    k-point downsampling of WAVECAR
   LCHARG       =      T    write CHGCAR
   LVTOT        =      F    write LOCPOT, total local potential
   LVHAR        =      F    write LOCPOT, Hartree potential only
   LELF         =      F    write electronic localiz. function (ELF)
   LORBIT       =      0    0 simple, 1 ext, 2 COOP (PROOUT), +10 PAW based schemes


 Dipole corrections
   LMONO  =      F    monopole corrections only (constant potential shift)
   LDIPOL =      F    correct potential (dipole corrections)
   IDIPOL =      0    1-x, 2-y, 3-z, 4-all directions 
   EPSILON=  1.0000000 bulk dielectric constant

 Exchange correlation treatment:
   GGA     =    --    GGA type
   LEXCH   =     8    internal setting for exchange type
   VOSKOWN=      0    Vosko Wilk Nusair interpolation
   LHFCALC =     F    Hartree Fock is set to
   LHFONE  =     F    Hartree Fock one center treatment
   AEXX    =    0.0000 exact exchange contribution

 Linear response parameters
   LEPSILON=     F    determine dielectric tensor
   LRPA    =     F    only Hartree local field effects (RPA)
   LNABLA  =     F    use nabla operator in PAW spheres
   LVEL    =     F    velocity operator in full k-point grid
   LINTERFAST=   F  fast interpolation
   KINTER  =     0    interpolate to denser k-point grid
   CSHIFT  =0.1000    complex shift for real part using Kramers Kronig
   OMEGAMAX=  -1.0    maximum frequency
   DEG_THRESHOLD= 0.2000000E-02 threshold for treating states as degnerate
   RTIME   =   -0.100 relaxation time in fs
  (WPLASMAI=    0.000 imaginary part of plasma frequency in eV, 0.658/RTIME)
   DFIELD  = 0.0000000 0.0000000 0.0000000 field for delta impulse in time
 
 Orbital magnetization related:
   ORBITALMAG=     F  switch on orbital magnetization
   LCHIMAG   =     F  perturbation theory with respect to B field
   DQ        =  0.001000  dq finite difference perturbation B field
   LLRAUG    =     F  two centre corrections for induced B field



--------------------------------------------------------------------------------------------------------


 Static calculation
 charge density and potential remain constant during run
 non-spin polarized calculation
 Variant of blocked Davidson
 Davidson routine will perform the subspace rotation
 perform sub-space diagonalisation
    after iterative eigenvector-optimisation
 no mixing
 using additional bands           16
 reciprocal scheme for non local part
 use partial core corrections
 calculate Harris-corrections to forces 
   (improved forces if not selfconsistent)
 use gradient corrections 
 WARNING: stress and forces are not correct
  (second derivative of E(xc) not defined)
 use of overlap-Matrix (Vanderbilt PP)
 Gauss-broadening in eV      SIGMA  =   0.05


--------------------------------------------------------------------------------------------------------


  energy-cutoff  :      520.00
  volume of cell :      540.92
      direct lattice vectors                 reciprocal lattice vectors
     2.536369000 -1.464373000  0.000000000     0.394264399  0.000000000  0.000000000
     0.000000000  2.928746000  0.000000000     0.197132200  0.341443061  0.000000000
     0.000000000  0.000000000 72.817586000     0.000000000  0.000000000  0.013732946

  length of vectors
     2.928746487  2.928746000 72.817586000     0.394264399  0.394264465  0.013732946


 
 k-points in units of 2pi/SCALE and weight: K-Spacing Value to Generate K-Mesh: 0.02
   0.00000000  0.00000000  0.00000000       0.006
   0.03032803  0.00000000  0.00000000       0.024
   0.06065606  0.00000000  0.00000000       0.024
   0.09098409  0.00000000  0.00000000       0.024
   0.12131212  0.00000000  0.00000000       0.024
   0.15164015  0.00000000  0.00000000       0.024
   0.18196818  0.00000000  0.00000000       0.024
   0.04549205  0.02626485  0.00000000       0.012
   0.07582008  0.02626485  0.00000000       0.024
   0.10614811  0.02626485  0.00000000       0.024
   0.13647614  0.02626485  0.00000000       0.024
   0.16680417  0.02626485  0.00000000       0.024
   0.19713220  0.02626485  0.00000000       0.024
  -0.16680417  0.02626485  0.00000000       0.024
  -0.13647614  0.02626485  0.00000000       0.024
  -0.10614811  0.02626485  0.00000000       0.024
  -0.07582008  0.02626485  0.00000000       0.024
  -0.04549205  0.02626485  0.00000000       0.024
  -0.01516402  0.02626485  0.00000000       0.012
   0.09098409  0.05252970  0.00000000       0.012
   0.12131212  0.05252970  0.00000000       0.024
   0.15164015  0.05252970  0.00000000       0.024
   0.18196818  0.05252970  0.00000000       0.024
   0.21229621  0.05252970  0.00000000       0.024
  -0.15164015  0.05252970  0.00000000       0.024
  -0.12131212  0.05252970  0.00000000       0.024
  -0.09098409  0.05252970  0.00000000       0.024
  -0.06065606  0.05252970  0.00000000       0.024
  -0.03032803  0.05252970  0.00000000       0.012
   0.13647614  0.07879455  0.00000000       0.012
   0.16680417  0.07879455  0.00000000       0.024
   0.19713220  0.07879455  0.00000000       0.024
   0.22746023  0.07879455  0.00000000       0.024
  -0.13647614  0.07879455  0.00000000       0.024
  -0.10614811  0.07879455  0.00000000       0.024
  -0.07582008  0.07879455  0.00000000       0.024
  -0.04549205  0.07879455  0.00000000       0.012
   0.18196818  0.10505940  0.00000000       0.012
   0.21229621  0.10505940  0.00000000       0.024
   0.24262425  0.10505940  0.00000000       0.024
  -0.12131212  0.10505940  0.00000000       0.024
  -0.09098409  0.10505940  0.00000000       0.024
  -0.06065606  0.10505940  0.00000000       0.012
   0.22746023  0.13132425  0.00000000       0.012
   0.25778826  0.13132425  0.00000000       0.024
  -0.10614811  0.13132425  0.00000000       0.024
  -0.07582008  0.13132425  0.00000000       0.012
   0.27295228  0.15758911  0.00000000       0.012
  -0.09098409  0.15758911  0.00000000       0.012
 
 k-points in reciprocal lattice and weights: K-Spacing Value to Generate K-Mesh: 0.02
   0.00000000  0.00000000  0.00000000       0.006
   0.07692308  0.00000000  0.00000000       0.024
   0.15384615  0.00000000  0.00000000       0.024
   0.23076923  0.00000000  0.00000000       0.024
   0.30769231  0.00000000  0.00000000       0.024
   0.38461538  0.00000000  0.00000000       0.024
   0.46153846  0.00000000  0.00000000       0.024
   0.07692308  0.07692308  0.00000000       0.012
   0.15384615  0.07692308  0.00000000       0.024
   0.23076923  0.07692308  0.00000000       0.024
   0.30769231  0.07692308  0.00000000       0.024
   0.38461538  0.07692308  0.00000000       0.024
   0.46153846  0.07692308  0.00000000       0.024
  -0.46153846  0.07692308  0.00000000       0.024
  -0.38461538  0.07692308  0.00000000       0.024
  -0.30769231  0.07692308  0.00000000       0.024
  -0.23076923  0.07692308  0.00000000       0.024
  -0.15384615  0.07692308  0.00000000       0.024
  -0.07692308  0.07692308  0.00000000       0.012
   0.15384615  0.15384615  0.00000000       0.012
   0.23076923  0.15384615  0.00000000       0.024
   0.30769231  0.15384615  0.00000000       0.024
   0.38461538  0.15384615  0.00000000       0.024
   0.46153846  0.15384615  0.00000000       0.024
  -0.46153846  0.15384615  0.00000000       0.024
  -0.38461538  0.15384615  0.00000000       0.024
  -0.30769231  0.15384615  0.00000000       0.024
  -0.23076923  0.15384615  0.00000000       0.024
  -0.15384615  0.15384615  0.00000000       0.012
   0.23076923  0.23076923  0.00000000       0.012
   0.30769231  0.23076923  0.00000000       0.024
   0.38461538  0.23076923  0.00000000       0.024
   0.46153846  0.23076923  0.00000000       0.024
  -0.46153846  0.23076923  0.00000000       0.024
  -0.38461538  0.23076923  0.00000000       0.024
  -0.30769231  0.23076923  0.00000000       0.024
  -0.23076923  0.23076923  0.00000000       0.012
   0.30769231  0.30769231  0.00000000       0.012
   0.38461538  0.30769231  0.00000000       0.024
   0.46153846  0.30769231  0.00000000       0.024
  -0.46153846  0.30769231  0.00000000       0.024
  -0.38461538  0.30769231  0.00000000       0.024
  -0.30769231  0.30769231  0.00000000       0.012
   0.38461538  0.38461538  0.00000000       0.012
   0.46153846  0.38461538  0.00000000       0.024
  -0.46153846  0.38461538  0.00000000       0.024
  -0.38461538  0.38461538  0.00000000       0.012
   0.46153846  0.46153846  0.00000000       0.012
  -0.46153846  0.46153846  0.00000000       0.012
 
 position of ions in fractional coordinates (direct lattice) 
   0.54205614  0.45794386  0.49738062
   0.54147808  0.45852192  0.59893159
   0.54286024  0.45713976  0.70053440
   0.20936069  0.79063931  0.46357836
   0.87504799  0.12495201  0.53123417
   0.20819578  0.79180422  0.56508332
   0.87513535  0.12486465  0.63276837
   0.20900801  0.79099199  0.66663656
   0.87622761  0.12377239  0.73439034
   0.54307687  0.45692313  0.44638021
   0.54166352  0.45833648  0.54823357
   0.54206934  0.45793066  0.64977943
   0.54259754  0.45740246  0.75213008
   0.87575437  0.12424563  0.48052577
   0.20852112  0.79147888  0.51438207
   0.87474864  0.12525136  0.58207734
   0.20830524  0.79169476  0.61591211
   0.87597797  0.12402203  0.68365578
   0.20965542  0.79034458  0.71755510
   0.88731025  0.11268975  0.22759943
   0.88862184  0.11137816  0.32083752
   0.87964001  0.12035999  0.41360066
   0.55569649  0.44430351  0.28990322
   0.54779753  0.45220247  0.38291597
   0.22144454  0.77855546  0.25900244
   0.21774942  0.78225058  0.35203258
 
 position of ions in cartesian coordinates  (Angst):
   1.37485440  0.54742885 36.21805612
   1.37338823  0.54996834 43.61275221
   1.37689388  0.54389638 51.01122391
   0.53101596  2.00899959 33.75665711
   2.21944460 -0.91544395 38.68318967
   0.52806133  2.01411715 41.14800295
   2.21966617 -0.91582774 46.07666503
   0.53012144  2.01054894 48.54286525
   2.22243654 -0.92062615 53.47653196
   1.37744334  0.54294467 32.50432900
   1.37385857  0.54915369 39.92104526
   1.37488786  0.54737090 47.31536960
   1.37622758  0.54505043 54.76829671
   2.22123622 -0.91854714 34.99072670
   0.52888651  2.01268789 37.45606098
   2.21868534 -0.91412888 42.38546643
   0.52833895  2.01363630 44.84923288
   2.22180338 -0.91952949 49.78216353
   0.53176351  2.00770479 52.25063035
   2.25054620 -0.96931350 16.57324076
   2.25387289 -0.97507549 23.36261381
   2.23109165 -0.93561724 30.11740148
   1.40945136  0.48750518 21.11005299
   1.38941668  0.52220626 27.88301673
   0.56166506  1.95591380 18.85993211
   0.55229287  1.97214690 25.63416274
 


--------------------------------------------------------------------------------------------------------


 k-point  1 :   0.0000 0.0000 0.0000  plane waves:   14839
 k-point  2 :   0.0769 0.0000 0.0000  plane waves:   14823
 k-point  3 :   0.1538 0.0000 0.0000  plane waves:   14703
 k-point  4 :   0.2308 0.0000 0.0000  plane waves:   14627
 k-point  5 :   0.3077 0.0000 0.0000  plane waves:   14592
 k-point  6 :   0.3846 0.0000 0.0000  plane waves:   14480
 k-point  7 :   0.4615 0.0000 0.0000  plane waves:   14382
 k-point  8 :   0.0769 0.0769 0.0000  plane waves:   14749
 k-point  9 :   0.1538 0.0769 0.0000  plane waves:   14650
 k-point 10 :   0.2308 0.0769 0.0000  plane waves:   14577
 k-point 11 :   0.3077 0.0769 0.0000  plane waves:   14565
 k-point 12 :   0.3846 0.0769 0.0000  plane waves:   14460
 k-point 13 :   0.4615 0.0769 0.0000  plane waves:   14412
 k-point 14 :  -0.4615 0.0769 0.0000  plane waves:   14460
 k-point 15 :  -0.3846 0.0769 0.0000  plane waves:   14565
 k-point 16 :  -0.3077 0.0769 0.0000  plane waves:   14577
 k-point 17 :  -0.2308 0.0769 0.0000  plane waves:   14650
 k-point 18 :  -0.1538 0.0769 0.0000  plane waves:   14749
 k-point 19 :  -0.0769 0.0769 0.0000  plane waves:   14823
 k-point 20 :   0.1538 0.1538 0.0000  plane waves:   14641
 k-point 21 :   0.2308 0.1538 0.0000  plane waves:   14590
 k-point 22 :   0.3077 0.1538 0.0000  plane waves:   14524
 k-point 23 :   0.3846 0.1538 0.0000  plane waves:   14489
 k-point 24 :   0.4615 0.1538 0.0000  plane waves:   14489
 k-point 25 :  -0.4615 0.1538 0.0000  plane waves:   14524
 k-point 26 :  -0.3846 0.1538 0.0000  plane waves:   14590
 k-point 27 :  -0.3077 0.1538 0.0000  plane waves:   14641
 k-point 28 :  -0.2308 0.1538 0.0000  plane waves:   14650
 k-point 29 :  -0.1538 0.1538 0.0000  plane waves:   14703
 k-point 30 :   0.2308 0.2308 0.0000  plane waves:   14557
 k-point 31 :   0.3077 0.2308 0.0000  plane waves:   14520
 k-point 32 :   0.3846 0.2308 0.0000  plane waves:   14522
 k-point 33 :   0.4615 0.2308 0.0000  plane waves:   14520
 k-point 34 :  -0.4615 0.2308 0.0000  plane waves:   14557
 k-point 35 :  -0.3846 0.2308 0.0000  plane waves:   14590
 k-point 36 :  -0.3077 0.2308 0.0000  plane waves:   14577
 k-point 37 :  -0.2308 0.2308 0.0000  plane waves:   14627
 k-point 38 :   0.3077 0.3077 0.0000  plane waves:   14512
 k-point 39 :   0.3846 0.3077 0.0000  plane waves:   14512
 k-point 40 :   0.4615 0.3077 0.0000  plane waves:   14520
 k-point 41 :  -0.4615 0.3077 0.0000  plane waves:   14524
 k-point 42 :  -0.3846 0.3077 0.0000  plane waves:   14565
 k-point 43 :  -0.3077 0.3077 0.0000  plane waves:   14592
 k-point 44 :   0.3846 0.3846 0.0000  plane waves:   14522
 k-point 45 :   0.4615 0.3846 0.0000  plane waves:   14489
 k-point 46 :  -0.4615 0.3846 0.0000  plane waves:   14460
 k-point 47 :  -0.3846 0.3846 0.0000  plane waves:   14480
 k-point 48 :   0.4615 0.4615 0.0000  plane waves:   14412
 k-point 49 :  -0.4615 0.4615 0.0000  plane waves:   14382

 maximum and minimum number of plane-waves per node :      3736     3571

 maximum number of plane-waves:     14839
 maximum index in each direction: 
   IXMAX=    5   IYMAX=    5   IZMAX=  135
   IXMIN=   -5   IYMIN=   -5   IZMIN= -135


 parallel 3D FFT for wavefunctions:
    minimum data exchange during FFTs selected (reduces bandwidth)
 parallel 3D FFT for charge:
    minimum data exchange during FFTs selected (reduces bandwidth)


 total amount of memory used by VASP MPI-rank0   153026. kBytes
=======================================================================

   base      :      30000. kBytes
   nonl-proj :      36388. kBytes
   fftplans  :      25889. kBytes
   grid      :      13563. kBytes
   one-center:         21. kBytes
   wavefun   :      47165. kBytes
 
     INWAV:  cpu time    0.0000: real time    0.0000
 initial charge density was supplied:
 number of electron      95.0000002 magnetization 
 keeping initial charge density in first step


--------------------------------------------------------------------------------------------------------


 Maximum index for augmentation-charges        12362 (set IRDMAX)


--------------------------------------------------------------------------------------------------------


 First call to EWALD:  gamma=   0.218
 Maximum number of real-space cells 8x 8x 1
 Maximum number of reciprocal cells 1x 1x21

    FEWALD:  cpu time    0.0017: real time    0.0017


--------------------------------------- Iteration      1(   1)  ---------------------------------------


    POTLOK:  cpu time    0.0737: real time    0.0744
    SETDIJ:  cpu time    0.1154: real time    0.1173
     EDDAV:  cpu time   10.9455: real time   11.1254
       DOS:  cpu time    0.0024: real time    0.0028
    --------------------------------------------
      LOOP:  cpu time   11.1370: real time   11.3201

 eigenvalue-minimisations  :  6432
 total energy-change (2. order) : 0.5905010E+03  (-0.3717229E+04)
 number of electron      95.0000002 magnetization 
 augmentation part       95.0000002 magnetization 

 Free energy of the ion-electron system (eV)
  ---------------------------------------------------
  alpha Z        PSCENC =        19.66960210
  Ewald energy   TEWEN  =    177082.23133813
  -Hartree energ DENC   =   -181551.23503039
  -exchange      EXHF   =         0.00000000
  -V(xc)+E(xc)   XCENC  =         6.73446967
  PAW double counting   =      3117.57813206    -2802.61491267
  entropy T*S    EENTRO =        -0.00683132
  eigenvalues    EBANDS =       222.12448444
  atomic energy  EATOM  =      4496.01971681
  Solvation  Ediel_sol  =         0.00000000
  ---------------------------------------------------
  free energy    TOTEN  =       590.50096881 eV

  energy without entropy =      590.50780013  energy(sigma->0) =      590.50438447


--------------------------------------------------------------------------------------------------------




--------------------------------------- Iteration      1(   2)  ---------------------------------------


     EDDAV:  cpu time   12.7878: real time   12.8081
       DOS:  cpu time    0.0022: real time    0.0027
    --------------------------------------------
      LOOP:  cpu time   12.7900: real time   12.8109

 eigenvalue-minimisations  :  8424
 total energy-change (2. order) :-0.6257423E+03  (-0.5814323E+03)
 number of electron      95.0000002 magnetization 
 augmentation part       95.0000002 magnetization 

 Free energy of the ion-electron system (eV)
  ---------------------------------------------------
  alpha Z        PSCENC =        19.66960210
  Ewald energy   TEWEN  =    177082.23133813
  -Hartree energ DENC   =   -181551.23503039
  -exchange      EXHF   =         0.00000000
  -V(xc)+E(xc)   XCENC  =         6.73446967
  PAW double counting   =      3117.57813206    -2802.61491267
  entropy T*S    EENTRO =        -0.00494183
  eigenvalues    EBANDS =      -403.61974137
  atomic energy  EATOM  =      4496.01971681
  Solvation  Ediel_sol  =         0.00000000
  ---------------------------------------------------
  free energy    TOTEN  =       -35.24136750 eV

  energy without entropy =      -35.23642567  energy(sigma->0) =      -35.23889659


--------------------------------------------------------------------------------------------------------




--------------------------------------- Iteration      1(   3)  ---------------------------------------


     EDDAV:  cpu time   11.0585: real time   11.0814
       DOS:  cpu time    0.0024: real time    0.0024
    --------------------------------------------
      LOOP:  cpu time   11.0608: real time   11.0838

 eigenvalue-minimisations  :  7472
 total energy-change (2. order) :-0.9521927E+02  (-0.9425349E+02)
 number of electron      95.0000002 magnetization 
 augmentation part       95.0000002 magnetization 

 Free energy of the ion-electron system (eV)
  ---------------------------------------------------
  alpha Z        PSCENC =        19.66960210
  Ewald energy   TEWEN  =    177082.23133813
  -Hartree energ DENC   =   -181551.23503039
  -exchange      EXHF   =         0.00000000
  -V(xc)+E(xc)   XCENC  =         6.73446967
  PAW double counting   =      3117.57813206    -2802.61491267
  entropy T*S    EENTRO =        -0.00464885
  eigenvalues    EBANDS =      -498.83930508
  atomic energy  EATOM  =      4496.01971681
  Solvation  Ediel_sol  =         0.00000000
  ---------------------------------------------------
  free energy    TOTEN  =      -130.46063823 eV

  energy without entropy =     -130.45598938  energy(sigma->0) =     -130.45831380


--------------------------------------------------------------------------------------------------------




--------------------------------------- Iteration      1(   4)  ---------------------------------------


     EDDAV:  cpu time   12.0385: real time   12.0575
       DOS:  cpu time    0.0023: real time    0.0028
    --------------------------------------------
      LOOP:  cpu time   12.0408: real time   12.0602

 eigenvalue-minimisations  :  7512
 total energy-change (2. order) :-0.2925184E+01  (-0.2916998E+01)
 number of electron      95.0000002 magnetization 
 augmentation part       95.0000002 magnetization 

 Free energy of the ion-electron system (eV)
  ---------------------------------------------------
  alpha Z        PSCENC =        19.66960210
  Ewald energy   TEWEN  =    177082.23133813
  -Hartree energ DENC   =   -181551.23503039
  -exchange      EXHF   =         0.00000000
  -V(xc)+E(xc)   XCENC  =         6.73446967
  PAW double counting   =      3117.57813206    -2802.61491267
  entropy T*S    EENTRO =        -0.00436817
  eigenvalues    EBANDS =      -501.76476972
  atomic energy  EATOM  =      4496.01971681
  Solvation  Ediel_sol  =         0.00000000
  ---------------------------------------------------
  free energy    TOTEN  =      -133.38582220 eV

  energy without entropy =     -133.38145403  energy(sigma->0) =     -133.38363811


--------------------------------------------------------------------------------------------------------




--------------------------------------- Iteration      1(   5)  ---------------------------------------


     EDDAV:  cpu time   12.1628: real time   12.1866
       DOS:  cpu time    0.0024: real time    0.0024
    --------------------------------------------
      LOOP:  cpu time   12.1652: real time   12.1890

 eigenvalue-minimisations  :  8536
 total energy-change (2. order) :-0.9738856E-01  (-0.9732659E-01)
 number of electron      95.0000002 magnetization 
 augmentation part       95.0000002 magnetization 

 Free energy of the ion-electron system (eV)
  ---------------------------------------------------
  alpha Z        PSCENC =        19.66960210
  Ewald energy   TEWEN  =    177082.23133813
  -Hartree energ DENC   =   -181551.23503039
  -exchange      EXHF   =         0.00000000
  -V(xc)+E(xc)   XCENC  =         6.73446967
  PAW double counting   =      3117.57813206    -2802.61491267
  entropy T*S    EENTRO =        -0.00431390
  eigenvalues    EBANDS =      -501.86221256
  atomic energy  EATOM  =      4496.01971681
  Solvation  Ediel_sol  =         0.00000000
  ---------------------------------------------------
  free energy    TOTEN  =      -133.48321077 eV

  energy without entropy =     -133.47889687  energy(sigma->0) =     -133.48105382


--------------------------------------------------------------------------------------------------------




--------------------------------------- Iteration      1(   6)  ---------------------------------------


     EDDAV:  cpu time   12.8890: real time   12.9108
       DOS:  cpu time    0.0023: real time    0.0023
    --------------------------------------------
      LOOP:  cpu time   12.8913: real time   12.9131

 eigenvalue-minimisations  :  8320
 total energy-change (2. order) :-0.3194459E-02  (-0.3193900E-02)
 number of electron      95.0000002 magnetization 
 augmentation part       95.0000002 magnetization 

 Free energy of the ion-electron system (eV)
  ---------------------------------------------------
  alpha Z        PSCENC =        19.66960210
  Ewald energy   TEWEN  =    177082.23133813
  -Hartree energ DENC   =   -181551.23503039
  -exchange      EXHF   =         0.00000000
  -V(xc)+E(xc)   XCENC  =         6.73446967
  PAW double counting   =      3117.57813206    -2802.61491267
  entropy T*S    EENTRO =        -0.00431282
  eigenvalues    EBANDS =      -501.86540810
  atomic energy  EATOM  =      4496.01971681
  Solvation  Ediel_sol  =         0.00000000
  ---------------------------------------------------
  free energy    TOTEN  =      -133.48640522 eV

  energy without entropy =     -133.48209241  energy(sigma->0) =     -133.48424882


--------------------------------------------------------------------------------------------------------




--------------------------------------- Iteration      1(   7)  ---------------------------------------


     EDDAV:  cpu time   14.0935: real time   14.1152
       DOS:  cpu time    0.0023: real time    0.0028
    --------------------------------------------
      LOOP:  cpu time   14.0959: real time   14.1180

 eigenvalue-minimisations  :  9144
 total energy-change (2. order) :-0.1712629E-03  (-0.1712558E-03)
 number of electron      95.0000002 magnetization 
 augmentation part       95.0000002 magnetization 

 Free energy of the ion-electron system (eV)
  ---------------------------------------------------
  alpha Z        PSCENC =        19.66960210
  Ewald energy   TEWEN  =    177082.23133813
  -Hartree energ DENC   =   -181551.23503039
  -exchange      EXHF   =         0.00000000
  -V(xc)+E(xc)   XCENC  =         6.73446967
  PAW double counting   =      3117.57813206    -2802.61491267
  entropy T*S    EENTRO =        -0.00431282
  eigenvalues    EBANDS =      -501.86557936
  atomic energy  EATOM  =      4496.01971681
  Solvation  Ediel_sol  =         0.00000000
  ---------------------------------------------------
  free energy    TOTEN  =      -133.48657649 eV

  energy without entropy =     -133.48226367  energy(sigma->0) =     -133.48442008


--------------------------------------------------------------------------------------------------------




--------------------------------------- Iteration      1(   8)  ---------------------------------------


     EDDAV:  cpu time   13.4067: real time   13.4286
       DOS:  cpu time    0.0022: real time    0.0022
    --------------------------------------------
      LOOP:  cpu time   13.4089: real time   13.4309

 eigenvalue-minimisations  :  8544
 total energy-change (2. order) :-0.5201957E-05  (-0.5201473E-05)
 number of electron      95.0000002 magnetization 
 augmentation part       95.0000002 magnetization 

 Free energy of the ion-electron system (eV)
  ---------------------------------------------------
  alpha Z        PSCENC =        19.66960210
  Ewald energy   TEWEN  =    177082.23133813
  -Hartree energ DENC   =   -181551.23503039
  -exchange      EXHF   =         0.00000000
  -V(xc)+E(xc)   XCENC  =         6.73446967
  PAW double counting   =      3117.57813206    -2802.61491267
  entropy T*S    EENTRO =        -0.00431282
  eigenvalues    EBANDS =      -501.86558457
  atomic energy  EATOM  =      4496.01971681
  Solvation  Ediel_sol  =         0.00000000
  ---------------------------------------------------
  free energy    TOTEN  =      -133.48658169 eV

  energy without entropy =     -133.48226887  energy(sigma->0) =     -133.48442528


--------------------------------------------------------------------------------------------------------




--------------------------------------- Iteration      1(   9)  ---------------------------------------


     EDDAV:  cpu time   12.6797: real time   12.7019
       DOS:  cpu time    0.0024: real time    0.0024
    --------------------------------------------
      LOOP:  cpu time   12.6821: real time   12.7043

 eigenvalue-minimisations  :  8976
 total energy-change (2. order) :-0.3149016E-06  (-0.3151856E-06)
 number of electron      95.0000002 magnetization 
 augmentation part       95.0000002 magnetization 

 Free energy of the ion-electron system (eV)
  ---------------------------------------------------
  alpha Z        PSCENC =        19.66960210
  Ewald energy   TEWEN  =    177082.23133813
  -Hartree energ DENC   =   -181551.23503039
  -exchange      EXHF   =         0.00000000
  -V(xc)+E(xc)   XCENC  =         6.73446967
  PAW double counting   =      3117.57813206    -2802.61491267
  entropy T*S    EENTRO =        -0.00431282
  eigenvalues    EBANDS =      -501.86558488
  atomic energy  EATOM  =      4496.01971681
  Solvation  Ediel_sol  =         0.00000000
  ---------------------------------------------------
  free energy    TOTEN  =      -133.48658200 eV

  energy without entropy =     -133.48226918  energy(sigma->0) =     -133.48442559


--------------------------------------------------------------------------------------------------------




--------------------------------------- Iteration      1(  10)  ---------------------------------------


     EDDAV:  cpu time   10.4511: real time   10.4715
       DOS:  cpu time    0.0024: real time    0.0024
    --------------------------------------------
      LOOP:  cpu time   10.4534: real time   10.4738

 eigenvalue-minimisations  :  6256
 total energy-change (2. order) :-0.1484386E-07  (-0.1502289E-07)
 number of electron      95.0000002 magnetization 
 augmentation part       95.0000002 magnetization 

 Free energy of the ion-electron system (eV)
  ---------------------------------------------------
  alpha Z        PSCENC =        19.66960210
  Ewald energy   TEWEN  =    177082.23133813
  -Hartree energ DENC   =   -181551.23503039
  -exchange      EXHF   =         0.00000000
  -V(xc)+E(xc)   XCENC  =         6.73446967
  PAW double counting   =      3117.57813206    -2802.61491267
  entropy T*S    EENTRO =        -0.00431282
  eigenvalues    EBANDS =      -501.86558490
  atomic energy  EATOM  =      4496.01971681
  Solvation  Ediel_sol  =         0.00000000
  ---------------------------------------------------
  free energy    TOTEN  =      -133.48658202 eV

  energy without entropy =     -133.48226920  energy(sigma->0) =     -133.48442561


--------------------------------------------------------------------------------------------------------




--------------------------------------- Iteration      1(  11)  ---------------------------------------


     EDDAV:  cpu time    9.5272: real time    9.5426
       DOS:  cpu time    0.0023: real time    0.0028
    --------------------------------------------
      LOOP:  cpu time    9.5295: real time    9.5454

 eigenvalue-minimisations  :  5344
 total energy-change (2. order) :-0.1366971E-08  (-0.1393490E-08)
 number of electron      95.0000002 magnetization 
 augmentation part       95.0000002 magnetization 

 Free energy of the ion-electron system (eV)
  ---------------------------------------------------
  alpha Z        PSCENC =        19.66960210
  Ewald energy   TEWEN  =    177082.23133813
  -Hartree energ DENC   =   -181551.23503039
  -exchange      EXHF   =         0.00000000
  -V(xc)+E(xc)   XCENC  =         6.73446967
  PAW double counting   =      3117.57813206    -2802.61491267
  entropy T*S    EENTRO =        -0.00431282
  eigenvalues    EBANDS =      -501.86558490
  atomic energy  EATOM  =      4496.01971681
  Solvation  Ediel_sol  =         0.00000000
  ---------------------------------------------------
  free energy    TOTEN  =      -133.48658202 eV

  energy without entropy =     -133.48226920  energy(sigma->0) =     -133.48442561


--------------------------------------------------------------------------------------------------------




 average (electrostatic) potential at core
  the test charge radii are     0.7215  1.0714  1.0406
  (the norm of the test charge is              1.0000)
       1 -73.8286       2 -73.7165       3 -73.6070       4 -73.9538       5 -73.7904
       6 -73.7551       7 -73.6700       8 -73.6399       9 -73.6672      10 -55.7490
      11 -55.5914      12 -55.4738      13 -55.9016      14 -55.6716      15 -55.6280
      16 -55.5532      17 -55.5109      18 -55.4496      19 -55.4309      20 -78.0690
      21 -77.9569      22 -77.8165      23 -77.8995      24 -77.9634      25 -77.9372
      26 -77.9187
 
 
 
 E-fermi :   2.6772     XC(G=0):  -6.0726     alpha+bet : -8.1812


 k-point     1 :       0.0000    0.0000    0.0000
  band No.  band energies     occupation 
      1     -18.3570      2.00000
      2     -18.2273      2.00000
      3     -18.1044      2.00000
      4     -17.9501      2.00000
      5     -17.7668      2.00000
      6     -17.5710      2.00000
      7     -17.3816      2.00000
      8     -17.2241      2.00000
      9     -17.0757      2.00000
     10      -8.1921      2.00000
     11      -7.8336      2.00000
     12      -7.2151      2.00000
     13      -6.4086      2.00000
     14      -5.7609      2.00000
     15      -5.5647      2.00000
     16      -5.3603      2.00000
     17      -5.0903      2.00000
     18      -4.6870      2.00000
     19      -4.2245      2.00000
     20      -3.8568      2.00000
     21      -3.3630      2.00000
     22      -2.7720      2.00000
     23      -2.3534      2.00000
     24      -1.8948      2.00000
     25      -1.5620      2.00000
     26      -1.5604      2.00000
     27      -1.4611      2.00000
     28      -1.4605      2.00000
     29      -1.3763      2.00000
     30      -1.3757      2.00000
     31      -1.3757      2.00000
     32      -1.2984      2.00000
     33      -1.2981      2.00000
     34      -1.2093      2.00000
     35      -1.2082      2.00000
     36      -1.1184      2.00000
     37      -1.1174      2.00000
     38      -1.0665      2.00000
     39      -1.0296      2.00000
     40      -1.0286      2.00000
     41      -0.9438      2.00000
     42      -0.9433      2.00000
     43      -0.8415      2.00000
     44      -0.8389      2.00000
     45       0.2824      2.00000
     46       0.7250      2.00000
     47       2.3914      2.00000
     48       3.8830      0.00000
     49       4.1882      0.00000
     50       4.6066      0.00000
     51       5.0704      0.00000
     52       5.4695      0.00000
     53       5.8468      0.00000
     54       6.2646      0.00000
     55       6.5605      0.00000
     56       6.7990      0.00000
     57       6.9212      0.00000
     58       7.0311      0.00000
     59       7.0892      0.00000
     60       7.1898      0.00000
     61       7.2682      0.00000
     62       7.3554      0.00000
     63       7.5849      0.00000
     64       7.8906      0.00000

 k-point     2 :       0.0769    0.0000    0.0000
  band No.  band energies     occupation 
      1     -18.2985      2.00000
      2     -18.1702      2.00000
      3     -18.0496      2.00000
      4     -17.8992      2.00000
      5     -17.7206      2.00000
      6     -17.5301      2.00000
      7     -17.3460      2.00000
      8     -17.1929      2.00000
      9     -17.0470      2.00000
     10      -8.0562      2.00000
     11      -7.6981      2.00000
     12      -7.0802      2.00000
     13      -6.2762      2.00000
     14      -5.6710      2.00000
     15      -5.4727      2.00000
     16      -5.2628      2.00000
     17      -5.0089      2.00000
     18      -4.6265      2.00000
     19      -4.1670      2.00000
     20      -3.7917      2.00000
     21      -3.3557      2.00000
     22      -2.7907      2.00000
     23      -2.3347      2.00000
     24      -1.9818      2.00000
     25      -1.7977      2.00000
     26      -1.6947      2.00000
     27      -1.6132      2.00000
     28      -1.6061      2.00000
     29      -1.5553      2.00000
     30      -1.5059      2.00000
     31      -1.4958      2.00000
     32      -1.4210      2.00000
     33      -1.3978      2.00000
     34      -1.3433      2.00000
     35      -1.3201      2.00000
     36      -1.2569      2.00000
     37      -1.2534      2.00000
     38      -1.1623      2.00000
     39      -1.1557      2.00000
     40      -1.0835      2.00000
     41      -1.0732      2.00000
     42      -0.9879      2.00000
     43      -0.9497      2.00000
     44      -0.8849      2.00000
     45       0.4130      2.00000
     46       0.8553      2.00000
     47       2.5314      1.99996
     48       4.0899      0.00000
     49       4.4854      0.00000
     50       4.8713      0.00000
     51       5.2990      0.00000
     52       5.6660      0.00000
     53       6.0333      0.00000
     54       6.4533      0.00000
     55       6.7481      0.00000
     56       7.0004      0.00000
     57       7.0715      0.00000
     58       7.2386      0.00000
     59       7.2676      0.00000
     60       7.4358      0.00000
     61       7.4964      0.00000
     62       7.5735      0.00000
     63       7.7399      0.00000
     64       8.0344      0.00000

 k-point     3 :       0.1538    0.0000    0.0000
  band No.  band energies     occupation 
      1     -18.1312      2.00000
      2     -18.0067      2.00000
      3     -17.8927      2.00000
      4     -17.7541      2.00000
      5     -17.5894      2.00000
      6     -17.4148      2.00000
      7     -17.2463      2.00000
      8     -17.1060      2.00000
      9     -16.9674      2.00000
     10      -7.6491      2.00000
     11      -7.2922      2.00000
     12      -6.6768      2.00000
     13      -5.8817      2.00000
     14      -5.4151      2.00000
     15      -5.2202      2.00000
     16      -4.9945      2.00000
     17      -4.7624      2.00000
     18      -4.4672      2.00000
     19      -4.0668      2.00000
     20      -3.6565      2.00000
     21      -3.3380      2.00000
     22      -2.9818      2.00000
     23      -2.6150      2.00000
     24      -2.3979      2.00000
     25      -2.3284      2.00000
     26      -2.2625      2.00000
     27      -2.1429      2.00000
     28      -2.0946      2.00000
     29      -1.9891      2.00000
     30      -1.8541      2.00000
     31      -1.7303      2.00000
     32      -1.7285      2.00000
     33      -1.6282      2.00000
     34      -1.5774      2.00000
     35      -1.5432      2.00000
     36      -1.4652      2.00000
     37      -1.4309      2.00000
     38      -1.3749      2.00000
     39      -1.2872      2.00000
     40      -1.2833      2.00000
     41      -1.1937      2.00000
     42      -1.1080      2.00000
     43      -1.0048      2.00000
     44      -0.6069      2.00000
     45       0.7257      2.00000
     46       1.2248      2.00000
     47       2.9085      0.00000
     48       4.5355      0.00000
     49       5.2285      0.00000
     50       5.5321      0.00000
     51       5.8634      0.00000
     52       6.1393      0.00000
     53       6.4891      0.00000
     54       6.9131      0.00000
     55       7.1879      0.00000
     56       7.4435      0.00000
     57       7.5039      0.00000
     58       7.6401      0.00000
     59       7.7349      0.00000
     60       7.7949      0.00000
     61       7.8710      0.00000
     62       8.0406      0.00000
     63       8.0989      0.00000
     64       8.2934      0.00000

 k-point     4 :       0.2308    0.0000    0.0000
  band No.  band energies     occupation 
      1     -17.8789      2.00000
      2     -17.7607      2.00000
      3     -17.6569      2.00000
      4     -17.5377      2.00000
      5     -17.3962      2.00000
      6     -17.2474      2.00000
      7     -17.1040      2.00000
      8     -16.9833      2.00000
      9     -16.8560      2.00000
     10      -6.9732      2.00000
     11      -6.6186      2.00000
     12      -6.0081      2.00000
     13      -5.2443      2.00000
     14      -5.0347      2.00000
     15      -4.8747      2.00000
     16      -4.6902      2.00000
     17      -4.4712      2.00000
     18      -4.2563      2.00000
     19      -4.0559      2.00000
     20      -3.8388      2.00000
     21      -3.6098      2.00000
     22      -3.3948      2.00000
     23      -3.2073      2.00000
     24      -3.1204      2.00000
     25      -3.0190      2.00000
     26      -2.9338      2.00000
     27      -2.7600      2.00000
     28      -2.5938      2.00000
     29      -2.3408      2.00000
     30      -2.0627      2.00000
     31      -1.8937      2.00000
     32      -1.8200      2.00000
     33      -1.7933      2.00000
     34      -1.7083      2.00000
     35      -1.6305      2.00000
     36      -1.6290      2.00000
     37      -1.5397      2.00000
     38      -1.4478      2.00000
     39      -1.4383      2.00000
     40      -1.3577      2.00000
     41      -1.2919      2.00000
     42      -1.2719      2.00000
     43      -1.1684      2.00000
     44      -0.0140      2.00000
     45       1.2070      2.00000
     46       1.8077      2.00000
     47       3.4283      0.00000
     48       4.6687      0.00000
     49       5.2613      0.00000
     50       5.4901      0.00000
     51       5.8912      0.00000
     52       6.1004      0.00000
     53       6.3432      0.00000
     54       6.5731      0.00000
     55       6.6555      0.00000
     56       6.8723      0.00000
     57       7.1272      0.00000
     58       7.5281      0.00000
     59       7.6215      0.00000
     60       7.8848      0.00000
     61       8.1335      0.00000
     62       8.2050      0.00000
     63       8.3674      0.00000
     64       8.4750      0.00000

 k-point     5 :       0.3077    0.0000    0.0000
  band No.  band energies     occupation 
      1     -17.5824      2.00000
      2     -17.4736      2.00000
      3     -17.3819      2.00000
      4     -17.2889      2.00000
      5     -17.1786      2.00000
      6     -17.0645      2.00000
      7     -16.9540      2.00000
      8     -16.8563      2.00000
      9     -16.7438      2.00000
     10      -6.0325      2.00000
     11      -5.6821      2.00000
     12      -5.0875      2.00000
     13      -4.7964      2.00000
     14      -4.7267      2.00000
     15      -4.6364      2.00000
     16      -4.5796      2.00000
     17      -4.4855      2.00000
     18      -4.4242      2.00000
     19      -4.2996      2.00000
     20      -4.1532      2.00000
     21      -4.0568      2.00000
     22      -3.9658      2.00000
     23      -3.8353      2.00000
     24      -3.6580      2.00000
     25      -3.3254      2.00000
     26      -3.1023      2.00000
     27      -2.8467      2.00000
     28      -2.4956      2.00000
     29      -2.1979      2.00000
     30      -2.0605      2.00000
     31      -2.0000      2.00000
     32      -1.9603      2.00000
     33      -1.8754      2.00000
     34      -1.8609      2.00000
     35      -1.7975      2.00000
     36      -1.7816      2.00000
     37      -1.7071      2.00000
     38      -1.6152      2.00000
     39      -1.5995      2.00000
     40      -1.5251      2.00000
     41      -1.4392      2.00000
     42      -1.3356      2.00000
     43      -0.4944      2.00000
     44       0.8098      2.00000
     45       1.8847      2.00000
     46       2.2408      2.00000
     47       2.5171      1.99999
     48       3.0127      0.00000
     49       3.5903      0.00000
     50       4.1483      0.00000
     51       4.5991      0.00000
     52       5.1959      0.00000
     53       6.0812      0.00000
     54       6.3631      0.00000
     55       6.7603      0.00000
     56       6.9931      0.00000
     57       7.2630      0.00000
     58       7.5082      0.00000
     59       7.6502      0.00000
     60       7.7827      0.00000
     61       8.0699      0.00000
     62       8.3961      0.00000
     63       8.4445      0.00000
     64       8.6990      0.00000

 k-point     6 :       0.3846    0.0000    0.0000
  band No.  band energies     occupation 
      1     -17.2998      2.00000
      2     -17.2039      2.00000
      3     -17.1247      2.00000
      4     -17.0588      2.00000
      5     -16.9866      2.00000
      6     -16.9124      2.00000
      7     -16.8389      2.00000
      8     -16.7618      2.00000
      9     -16.6682      2.00000
     10      -5.2583      2.00000
     11      -5.1012      2.00000
     12      -4.9631      2.00000
     13      -4.9263      2.00000
     14      -4.8348      2.00000
     15      -4.7989      2.00000
     16      -4.7322      2.00000
     17      -4.6442      2.00000
     18      -4.5403      2.00000
     19      -4.4729      2.00000
     20      -4.4489      2.00000
     21      -3.9300      2.00000
     22      -3.7887      2.00000
     23      -3.5309      2.00000
     24      -3.1986      2.00000
     25      -2.9902      2.00000
     26      -2.7716      2.00000
     27      -2.4887      2.00000
     28      -2.3238      2.00000
     29      -2.2288      2.00000
     30      -2.1929      2.00000
     31      -2.0929      2.00000
     32      -2.0150      2.00000
     33      -2.0081      2.00000
     34      -1.9377      2.00000
     35      -1.9305      2.00000
     36      -1.8405      2.00000
     37      -1.7488      2.00000
     38      -1.7475      2.00000
     39      -1.6589      2.00000
     40      -1.5731      2.00000
     41      -1.4696      2.00000
     42      -0.7761      2.00000
     43       0.2544      2.00000
     44       0.4213      2.00000
     45       0.6739      2.00000
     46       1.2060      2.00000
     47       1.9240      2.00000
     48       2.2741      2.00000
     49       2.7622      0.01621
     50       3.0622      0.00000
     51       3.8650      0.00000
     52       4.2557      0.00000
     53       5.3489      0.00000
     54       5.6432      0.00000
     55       6.7164      0.00000
     56       6.7994      0.00000
     57       6.9795      0.00000
     58       7.1353      0.00000
     59       7.4978      0.00000
     60       7.9136      0.00000
     61       7.9280      0.00000
     62       8.1789      0.00000
     63       8.2401      0.00000
     64       8.4759      0.00000

 k-point     7 :       0.4615    0.0000    0.0000
  band No.  band energies     occupation 
      1     -17.1083      2.00000
      2     -17.0265      2.00000
      3     -16.9638      2.00000
      4     -16.9110      2.00000
      5     -16.8699      2.00000
      6     -16.8284      2.00000
      7     -16.7844      2.00000
      8     -16.7246      2.00000
      9     -16.6521      2.00000
     10      -5.5905      2.00000
     11      -5.4310      2.00000
     12      -5.2618      2.00000
     13      -5.1288      2.00000
     14      -5.0611      2.00000
     15      -4.9834      2.00000
     16      -4.9076      2.00000
     17      -4.8152      2.00000
     18      -4.7468      2.00000
     19      -3.3924      2.00000
     20      -3.3291      2.00000
     21      -3.1340      2.00000
     22      -3.0134      2.00000
     23      -2.9100      2.00000
     24      -2.7383      2.00000
     25      -2.6715      2.00000
     26      -2.4893      2.00000
     27      -2.4448      2.00000
     28      -2.3869      2.00000
     29      -2.2655      2.00000
     30      -2.1656      2.00000
     31      -2.1044      2.00000
     32      -2.0809      2.00000
     33      -2.0036      2.00000
     34      -1.9138      2.00000
     35      -1.8347      2.00000
     36      -1.8224      2.00000
     37      -1.7327      2.00000
     38      -1.6776      2.00000
     39      -1.6469      2.00000
     40      -1.5992      2.00000
     41      -1.5435      2.00000
     42      -1.3324      2.00000
     43      -0.7483      2.00000
     44      -0.6225      2.00000
     45       0.0637      2.00000
     46       0.6101      2.00000
     47       1.2054      2.00000
     48       2.0425      2.00000
     49       2.4047      2.00000
     50       3.3762      0.00000
     51       3.6955      0.00000
     52       3.7300      0.00000
     53       4.9522      0.00000
     54       5.1942      0.00000
     55       5.6196      0.00000
     56       6.4190      0.00000
     57       6.8383      0.00000
     58       7.1261      0.00000
     59       7.5075      0.00000
     60       7.6931      0.00000
     61       7.7887      0.00000
     62       8.0057      0.00000
     63       8.0893      0.00000
     64       8.2945      0.00000

 k-point     8 :       0.0769    0.0769    0.0000
  band No.  band energies     occupation 
      1     -18.1857      2.00000
      2     -18.0599      2.00000
      3     -17.9437      2.00000
      4     -17.8012      2.00000
      5     -17.6318      2.00000
      6     -17.4519      2.00000
      7     -17.2783      2.00000
      8     -17.1338      2.00000
      9     -16.9928      2.00000
     10      -7.7847      2.00000
     11      -7.4274      2.00000
     12      -6.8111      2.00000
     13      -6.0126      2.00000
     14      -5.4981      2.00000
     15      -5.3004      2.00000
     16      -5.0780      2.00000
     17      -4.8447      2.00000
     18      -4.5169      2.00000
     19      -4.0881      2.00000
     20      -3.6807      2.00000
     21      -3.3464      2.00000
     22      -2.9014      2.00000
     23      -2.4640      2.00000
     24      -2.1891      2.00000
     25      -2.1358      2.00000
     26      -2.0829      2.00000
     27      -1.9923      2.00000
     28      -1.9198      2.00000
     29      -1.8488      2.00000
     30      -1.8080      2.00000
     31      -1.6896      2.00000
     32      -1.6732      2.00000
     33      -1.5806      2.00000
     34      -1.5375      2.00000
     35      -1.4886      2.00000
     36      -1.4189      2.00000
     37      -1.3777      2.00000
     38      -1.3252      2.00000
     39      -1.2561      2.00000
     40      -1.2375      2.00000
     41      -1.1597      2.00000
     42      -1.0903      2.00000
     43      -0.9959      2.00000
     44      -0.7230      2.00000
     45       0.6275      2.00000
     46       1.1039      2.00000
     47       2.7883      0.00168
     48       4.4055      0.00000
     49       5.0088      0.00000
     50       5.3351      0.00000
     51       5.6966      0.00000
     52       6.0025      0.00000
     53       6.3564      0.00000
     54       6.7842      0.00000
     55       7.0749      0.00000
     56       7.3293      0.00000
     57       7.3702      0.00000
     58       7.5739      0.00000
     59       7.6012      0.00000
     60       7.8437      0.00000
     61       7.8767      0.00000
     62       8.0341      0.00000
     63       8.0882      0.00000
     64       8.3135      0.00000

 k-point     9 :       0.1538    0.0769    0.0000
  band No.  band energies     occupation 
      1     -17.9757      2.00000
      2     -17.8549      2.00000
      3     -17.7471      2.00000
      4     -17.6202      2.00000
      5     -17.4694      2.00000
      6     -17.3103      2.00000
      7     -17.1570      2.00000
      8     -17.0287      2.00000
      9     -16.8970      2.00000
     10      -7.2432      2.00000
     11      -6.8876      2.00000
     12      -6.2749      2.00000
     13      -5.4941      2.00000
     14      -5.1778      2.00000
     15      -4.9999      2.00000
     16      -4.7882      2.00000
     17      -4.5437      2.00000
     18      -4.3194      2.00000
     19      -4.0446      2.00000
     20      -3.7208      2.00000
     21      -3.4103      2.00000
     22      -3.1421      2.00000
     23      -2.9346      2.00000
     24      -2.8581      2.00000
     25      -2.7655      2.00000
     26      -2.6750      2.00000
     27      -2.6286      2.00000
     28      -2.4684      2.00000
     29      -2.2590      2.00000
     30      -2.0227      2.00000
     31      -1.8583      2.00000
     32      -1.7876      2.00000
     33      -1.7451      2.00000
     34      -1.6682      2.00000
     35      -1.5883      2.00000
     36      -1.5834      2.00000
     37      -1.5099      2.00000
     38      -1.4833      2.00000
     39      -1.4356      2.00000
     40      -1.4056      2.00000
     41      -1.3383      2.00000
     42      -1.2544      2.00000
     43      -1.1680      2.00000
     44      -0.2518      2.00000
     45       1.0185      2.00000
     46       1.5814      2.00000
     47       3.2501      0.00000
     48       4.8601      0.00000
     49       5.8153      0.00000
     50       6.0256      0.00000
     51       6.1643      0.00000
     52       6.4155      0.00000
     53       6.6391      0.00000
     54       6.7091      0.00000
     55       6.9303      0.00000
     56       7.2131      0.00000
     57       7.3620      0.00000
     58       7.6192      0.00000
     59       7.8590      0.00000
     60       7.9202      0.00000
     61       7.9853      0.00000
     62       8.0221      0.00000
     63       8.1315      0.00000
     64       8.2361      0.00000

 k-point    10 :       0.2308    0.0769    0.0000
  band No.  band energies     occupation 
      1     -17.7006      2.00000
      2     -17.5876      2.00000
      3     -17.4910      2.00000
      4     -17.3869      2.00000
      5     -17.2632      2.00000
      6     -17.1343      2.00000
      7     -17.0099      2.00000
      8     -16.9029      2.00000
      9     -16.7842      2.00000
     10      -6.4349      2.00000
     11      -6.0823      2.00000
     12      -5.4777      2.00000
     13      -4.8447      2.00000
     14      -4.7438      2.00000
     15      -4.6626      2.00000
     16      -4.5686      2.00000
     17      -4.4577      2.00000
     18      -4.3184      2.00000
     19      -4.1570      2.00000
     20      -3.9918      2.00000
     21      -3.8258      2.00000
     22      -3.6654      2.00000
     23      -3.5284      2.00000
     24      -3.4975      2.00000
     25      -3.3835      2.00000
     26      -3.1452      2.00000
     27      -2.8362      2.00000
     28      -2.5102      2.00000
     29      -2.2607      2.00000
     30      -2.1068      2.00000
     31      -2.0673      2.00000
     32      -1.9716      2.00000
     33      -1.9164      2.00000
     34      -1.8693      2.00000
     35      -1.8127      2.00000
     36      -1.7763      2.00000
     37      -1.7100      2.00000
     38      -1.6337      2.00000
     39      -1.5998      2.00000
     40      -1.5215      2.00000
     41      -1.4279      2.00000
     42      -1.3493      2.00000
     43      -0.8418      2.00000
     44       0.4640      2.00000
     45       1.5991      2.00000
     46       2.2333      2.00000
     47       3.4578      0.00000
     48       3.9350      0.00000
     49       4.4438      0.00000
     50       4.7460      0.00000
     51       5.5242      0.00000
     52       5.7019      0.00000
     53       6.4732      0.00000
     54       6.6339      0.00000
     55       6.8224      0.00000
     56       6.9392      0.00000
     57       7.1323      0.00000
     58       7.3090      0.00000
     59       7.3593      0.00000
     60       7.4851      0.00000
[...]
     37      -1.8504      2.00000
     38      -1.7984      2.00000
     39      -1.7009      2.00000
     40      -1.6397      2.00000
     41      -1.2259      2.00000
     42      -0.6460      2.00000
     43      -0.3113      2.00000
     44      -0.0966      2.00000
     45       0.3359      2.00000
     46       1.0085      2.00000
     47       1.5273      2.00000
     48       2.2389      2.00000
     49       2.7499      0.03966
     50       3.3454      0.00000
     51       3.3849      0.00000
     52       4.3659      0.00000
     53       4.8060      0.00000
     54       5.6257      0.00000
     55       5.8354      0.00000
     56       6.2177      0.00000
     57       6.2722      0.00000
     58       6.7279      0.00000
     59       7.0097      0.00000
     60       7.2831      0.00000
     61       7.5232      0.00000
     62       7.7242      0.00000
     63       7.8394      0.00000
     64       8.1783      0.00000

 k-point    47 :      -0.3846    0.3846    0.0000
  band No.  band energies     occupation 
      1     -17.2994      2.00000
      2     -17.2039      2.00000
      3     -17.1249      2.00000
      4     -17.0590      2.00000
      5     -16.9867      2.00000
      6     -16.9126      2.00000
      7     -16.8391      2.00000
      8     -16.7618      2.00000
      9     -16.6677      2.00000
     10      -5.2573      2.00000
     11      -5.1014      2.00000
     12      -4.9638      2.00000
     13      -4.9261      2.00000
     14      -4.8346      2.00000
     15      -4.7986      2.00000
     16      -4.7318      2.00000
     17      -4.6439      2.00000
     18      -4.5402      2.00000
     19      -4.4729      2.00000
     20      -4.4493      2.00000
     21      -3.9298      2.00000
     22      -3.7885      2.00000
     23      -3.5306      2.00000
     24      -3.1982      2.00000
     25      -2.9900      2.00000
     26      -2.7711      2.00000
     27      -2.4880      2.00000
     28      -2.3248      2.00000
     29      -2.2307      2.00000
     30      -2.1942      2.00000
     31      -2.0933      2.00000
     32      -2.0149      2.00000
     33      -2.0079      2.00000
     34      -1.9381      2.00000
     35      -1.9307      2.00000
     36      -1.8411      2.00000
     37      -1.7494      2.00000
     38      -1.7459      2.00000
     39      -1.6596      2.00000
     40      -1.5728      2.00000
     41      -1.4680      2.00000
     42      -0.7769      2.00000
     43       0.2528      2.00000
     44       0.4214      2.00000
     45       0.6767      2.00000
     46       1.2109      2.00000
     47       1.9356      2.00000
     48       2.2632      2.00000
     49       2.7620      0.01643
     50       3.0583      0.00000
     51       3.8677      0.00000
     52       4.2519      0.00000
     53       5.3518      0.00000
     54       5.6348      0.00000
     55       6.7169      0.00000
     56       6.8065      0.00000
     57       6.9714      0.00000
     58       7.1307      0.00000
     59       7.4974      0.00000
     60       7.9144      0.00000
     61       7.9285      0.00000
     62       8.1811      0.00000
     63       8.2405      0.00000
     64       8.4755      0.00000

 k-point    48 :       0.4615    0.4615    0.0000
  band No.  band energies     occupation 
      1     -17.0625      2.00000
      2     -16.9851      2.00000
      3     -16.9289      2.00000
      4     -16.8800      2.00000
      5     -16.8400      2.00000
      6     -16.8042      2.00000
      7     -16.7650      2.00000
      8     -16.7117      2.00000
      9     -16.6450      2.00000
     10      -5.5692      2.00000
     11      -5.4119      2.00000
     12      -5.2430      2.00000
     13      -5.0993      2.00000
     14      -5.0416      2.00000
     15      -4.9577      2.00000
     16      -4.8882      2.00000
     17      -4.7984      2.00000
     18      -4.7316      2.00000
     19      -3.1921      2.00000
     20      -3.0289      2.00000
     21      -2.9297      2.00000
     22      -2.8499      2.00000
     23      -2.7147      2.00000
     24      -2.5541      2.00000
     25      -2.5089      2.00000
     26      -2.4632      2.00000
     27      -2.4483      2.00000
     28      -2.4411      2.00000
     29      -2.3376      2.00000
     30      -2.2629      2.00000
     31      -2.2131      2.00000
     32      -2.1456      2.00000
     33      -2.1232      2.00000
     34      -2.0880      2.00000
     35      -2.0269      2.00000
     36      -1.9789      2.00000
     37      -1.8860      2.00000
     38      -1.8436      2.00000
     39      -1.7367      2.00000
     40      -1.6907      2.00000
     41      -1.5383      2.00000
     42      -1.4811      2.00000
     43      -0.7663      2.00000
     44      -0.6721      2.00000
     45       0.1516      2.00000
     46       0.5032      2.00000
     47       1.3998      2.00000
     48       1.8118      2.00000
     49       2.7089      0.36955
     50       3.1409      0.00000
     51       4.0663      0.00000
     52       4.0726      0.00000
     53       4.4146      0.00000
     54       5.4344      0.00000
     55       5.5029      0.00000
     56       5.6420      0.00000
     57       6.0481      0.00000
     58       6.7101      0.00000
     59       7.0050      0.00000
     60       7.2194      0.00000
     61       7.3506      0.00000
     62       7.6433      0.00000
     63       7.8315      0.00000
     64       8.0491      0.00000

 k-point    49 :      -0.4615    0.4615    0.0000
  band No.  band energies     occupation 
      1     -17.1073      2.00000
      2     -17.0264      2.00000
      3     -16.9643      2.00000
      4     -16.9119      2.00000
      5     -16.8705      2.00000
      6     -16.8287      2.00000
      7     -16.7844      2.00000
      8     -16.7241      2.00000
      9     -16.6512      2.00000
     10      -5.5893      2.00000
     11      -5.4314      2.00000
     12      -5.2617      2.00000
     13      -5.1301      2.00000
     14      -5.0608      2.00000
     15      -4.9830      2.00000
     16      -4.9072      2.00000
     17      -4.8149      2.00000
     18      -4.7469      2.00000
     19      -3.3920      2.00000
     20      -3.3283      2.00000
     21      -3.1337      2.00000
     22      -3.0132      2.00000
     23      -2.9089      2.00000
     24      -2.7378      2.00000
     25      -2.6714      2.00000
     26      -2.4932      2.00000
     27      -2.4450      2.00000
     28      -2.3871      2.00000
     29      -2.2668      2.00000
     30      -2.1660      2.00000
     31      -2.1046      2.00000
     32      -2.0808      2.00000
     33      -2.0037      2.00000
     34      -1.9144      2.00000
     35      -1.8329      2.00000
     36      -1.8230      2.00000
     37      -1.7333      2.00000
     38      -1.6766      2.00000
     39      -1.6466      2.00000
     40      -1.6005      2.00000
     41      -1.5419      2.00000
     42      -1.3337      2.00000
     43      -0.7536      2.00000
     44      -0.6158      2.00000
     45       0.0657      2.00000
     46       0.6126      2.00000
     47       1.2138      2.00000
     48       2.0389      2.00000
     49       2.3968      2.00000
     50       3.3789      0.00000
     51       3.6896      0.00000
     52       3.7290      0.00000
     53       4.9599      0.00000
     54       5.1852      0.00000
     55       5.6211      0.00000
     56       6.4242      0.00000
     57       6.8267      0.00000
     58       7.1258      0.00000
     59       7.5079      0.00000
     60       7.6943      0.00000
     61       7.7887      0.00000
     62       8.0064      0.00000
     63       8.0860      0.00000
     64       8.2936      0.00000


--------------------------------------------------------------------------------------------------------


 soft charge-density along one line, spin component           1
         0         1         2         3         4         5         6         7         8         9
 total charge-density along one line
 
 pseudopotential strength for first ion, spin component:           1
 12.764  -0.358  -0.000   0.000   0.000   0.000  -0.000  -0.000
 -0.358   0.086   0.000  -0.000  -0.000  -0.000   0.000   0.000
 -0.000   0.000  -9.076   0.000  -0.000  -0.066  -0.000   0.000
  0.000  -0.000   0.000  -9.081  -0.000  -0.000  -0.066   0.000
  0.000  -0.000  -0.000  -0.000  -9.076   0.000   0.000  -0.066
  0.000  -0.000  -0.066  -0.000   0.000   0.239   0.000  -0.000
 -0.000   0.000  -0.000  -0.066   0.000   0.000   0.239  -0.000
 -0.000   0.000   0.000   0.000  -0.066  -0.000  -0.000   0.239
 total augmentation occupancy for first ion, spin component:           1
  2.000   0.000   0.000   0.000   0.000   0.000   0.000   0.000
  0.000   0.000   0.000   0.000   0.000   0.000   0.000   0.000
  0.000   0.000   1.333   0.000  -0.000   0.000   0.000   0.000
  0.000   0.000   0.000   1.333   0.000   0.000   0.000   0.000
  0.000   0.000  -0.000   0.000   1.333   0.000   0.000   0.000
  0.000   0.000   0.000   0.000   0.000   0.000   0.000   0.000
  0.000   0.000   0.000   0.000   0.000   0.000   0.000   0.000
  0.000   0.000   0.000   0.000   0.000   0.000   0.000   0.000


------------------------ aborting loop because EDIFF is reached ----------------------------------------


    CHARGE:  cpu time    0.5563: real time    0.5571
    FORLOC:  cpu time    0.0143: real time    0.0144
    FORNL :  cpu time    3.9468: real time    3.9524
    STRESS:  cpu time    5.9538: real time    5.9703
    FORCOR:  cpu time    0.0702: real time    0.0705
    FORHAR:  cpu time    0.0308: real time    0.0309
    OFIELD:  cpu time    0.0003: real time    0.0003

  FORCE on cell =-STRESS in cart. coord.  units (eV):
  Direction    XX          YY          ZZ          XY          YZ          ZX
  --------------------------------------------------------------------------------------
  Alpha Z    19.66960    19.66960    19.66960
  Ewald  179597.77210179597.79977************    -0.02379    -0.18457     0.10645
  Hartree180727.26708180727.26577************     0.00109     0.00223    -0.00126
  E(xc)    -390.06429  -390.06518  -390.53519     0.00077     0.00727    -0.00419
  Local  ************************360950.14065     0.03021     0.18689    -0.10786
  n-local   -10.64602   -16.68581    -8.69416    -1.75882     2.01956     3.67603
  augment    55.18795    55.18664    54.27785     0.00111     0.00296    -0.00171
  Kinetic  1407.60770  1380.13126  1382.28903    -7.95456     0.38078     0.66083
  Fock        0.00000     0.00000     0.00000     0.00000     0.00000     0.00000
  -------------------------------------------------------------------------------------
  Total       9.70050     9.72273     0.43174    -0.01925    -0.06287     0.03630
  in kB      28.73257    28.79839     1.27880    -0.05701    -0.18622     0.10752
  external pressure =       19.60 kB  Pullay stress =        0.00 kB


 VOLUME and BASIS-vectors are now :
 -----------------------------------------------------------------------------
  energy-cutoff  :      520.00
  volume of cell :      540.92
      direct lattice vectors                 reciprocal lattice vectors
     2.536369000 -1.464373000  0.000000000     0.394264399  0.000000000  0.000000000
     0.000000000  2.928746000  0.000000000     0.197132200  0.341443061  0.000000000
     0.000000000  0.000000000 72.817586000     0.000000000  0.000000000  0.013732946

  length of vectors
     2.928746487  2.928746000 72.817586000     0.394264399  0.394264465  0.013732946


 FORCES acting on ions
    electron-ion (+dipol)            ewald-force                    non-local-force                 convergence-correction
 -----------------------------------------------------------------------------------------------
   -.909E-02 0.157E-01 0.142E+04   0.107E-01 -.185E-01 -.142E+04   -.244E-03 0.423E-03 -.896E-01   0.339E-03 -.588E-03 -.472E-02
   -.742E-02 0.128E-01 -.681E+03   0.778E-02 -.135E-01 0.681E+03   0.648E-03 -.112E-02 -.146E+00   0.195E-03 -.338E-03 0.355E-03
   0.779E-02 -.135E-01 -.278E+04   -.837E-02 0.145E-01 0.278E+04   -.139E-02 0.240E-02 -.216E+00   0.559E-03 -.969E-03 0.112E+00
   0.171E-02 -.296E-02 0.211E+04   0.286E-04 -.524E-04 -.211E+04   -.350E-03 0.606E-03 0.543E+00   -.738E-03 0.128E-02 0.930E-01
   -.469E-02 0.812E-02 0.717E+03   0.567E-02 -.982E-02 -.717E+03   -.331E-04 0.573E-04 -.140E+00   -.186E-04 0.322E-04 0.721E-01
   -.189E-02 0.328E-02 0.181E+02   0.221E-02 -.382E-02 -.180E+02   0.629E-03 -.109E-02 -.154E+00   -.507E-03 0.877E-03 0.970E-01
   -.620E-02 0.107E-01 -.138E+04   0.658E-02 -.114E-01 0.138E+04   -.253E-03 0.439E-03 -.147E+00   0.816E-03 -.141E-02 0.110E+00
   -.531E-03 0.920E-03 -.208E+04   0.100E-02 -.174E-02 0.208E+04   -.425E-03 0.737E-03 -.106E+00   0.145E-04 -.251E-04 -.533E-02
   0.615E-02 -.107E-01 -.347E+04   -.834E-02 0.144E-01 0.347E+04   0.227E-02 -.394E-02 -.177E+01   -.923E-03 0.160E-02 0.112E+00
   0.111E-01 -.193E-01 0.804E+03   -.125E-01 0.217E-01 -.804E+03   0.282E-02 -.489E-02 -.115E+00   0.174E-05 -.301E-05 0.286E-02
   0.536E-02 -.928E-02 0.122E+03   -.424E-02 0.734E-02 -.122E+03   -.181E-02 0.313E-02 -.112E+00   0.117E-05 -.203E-05 0.220E-01
   -.677E-03 0.117E-02 -.577E+03   0.599E-03 -.104E-02 0.577E+03   0.332E-03 -.575E-03 -.112E+00   -.171E-05 0.297E-05 0.186E-01
   -.162E-01 0.280E-01 -.126E+04   0.130E-01 -.225E-01 0.126E+04   0.490E-02 -.849E-02 0.126E+01   0.210E-05 -.363E-05 0.225E-01
   0.581E-02 -.101E-01 0.589E+03   -.442E-02 0.766E-02 -.589E+03   -.208E-02 0.360E-02 -.132E+00   0.854E-06 -.148E-05 0.149E-01
   -.369E-02 0.639E-02 0.356E+03   0.304E-02 -.526E-02 -.355E+03   0.132E-02 -.229E-02 -.111E+00   -.841E-06 0.146E-05 0.142E-01
   -.110E-01 0.191E-01 -.111E+03   0.879E-02 -.152E-01 0.111E+03   0.388E-02 -.672E-02 -.107E+00   0.774E-06 -.134E-05 0.177E-01
   -.322E-03 0.558E-03 -.344E+03   0.315E-03 -.546E-03 0.344E+03   0.250E-03 -.433E-03 -.969E-01   -.224E-05 0.388E-05 0.187E-01
   0.512E-02 -.886E-02 -.810E+03   -.405E-02 0.702E-02 0.810E+03   -.179E-02 0.310E-02 -.102E+00   -.126E-05 0.218E-05 0.176E-01
   0.140E-01 -.243E-01 -.104E+04   -.113E-01 0.195E-01 0.104E+04   -.488E-02 0.844E-02 -.247E-01   0.807E-06 -.140E-05 0.283E-01
   -.494E-03 0.856E-03 0.121E+04   0.274E-02 -.475E-02 -.121E+04   -.100E-02 0.174E-02 -.146E+01   -.422E-06 0.731E-06 0.331E-01
   0.265E-01 -.458E-01 0.120E+04   -.138E-01 0.239E-01 -.120E+04   -.178E-01 0.309E-01 0.145E+00   -.208E-06 0.360E-06 -.149E+00
   -.436E-03 0.754E-03 0.119E+04   -.679E-03 0.118E-02 -.119E+04   -.231E-02 0.400E-02 -.800E+00   0.775E-06 -.134E-05 -.823E-01
   0.897E-02 -.155E-01 0.120E+04   -.500E-02 0.866E-02 -.120E+04   -.670E-02 0.116E-01 -.599E-02   0.548E-06 -.949E-06 -.639E-01
   -.168E-01 0.291E-01 0.119E+04   0.685E-02 -.119E-01 -.119E+04   0.131E-01 -.227E-01 0.115E+00   0.746E-06 -.129E-05 -.150E+00
   -.371E-02 0.642E-02 0.121E+04   0.690E-03 -.120E-02 -.121E+04   0.463E-02 -.801E-02 -.225E-01   -.250E-06 0.433E-06 0.106E-01
   -.479E-02 0.830E-02 0.120E+04   0.272E-02 -.471E-02 -.120E+04   0.191E-02 -.330E-02 -.191E+00   -.915E-06 0.159E-05 -.181E+00
 -----------------------------------------------------------------------------------------------
   0.461E-02 -.798E-02 0.391E+01   -.148E-13 0.435E-13 -.364E-11   -.436E-02 0.756E-02 -.409E+01   -.259E-03 0.449E-03 0.181E+00
 
 
 POSITION                                       TOTAL-FORCE (eV/Angst)
 -----------------------------------------------------------------------------------
      1.37485      0.54743     36.21806         0.001689     -0.002925      0.008976
      1.37339      0.54997     43.61275         0.001204     -0.002086     -0.005412
      1.37689      0.54390     51.01122        -0.001403      0.002430     -0.004150
      0.53102      2.00900     33.75666         0.000653     -0.001130      0.001767
      2.21944     -0.91544     38.68319         0.000926     -0.001604      0.002994
      0.52806      2.01412     41.14800         0.000441     -0.000763     -0.000101
      2.21967     -0.91583     46.07667         0.000942     -0.001632      0.006944
      0.53012      2.01055     48.54287         0.000062     -0.000107      0.019853
      2.22244     -0.92063     53.47653        -0.000840      0.001454     -0.011700
      1.37744      0.54294     32.50433         0.001459     -0.002527      0.005802
      1.37386      0.54915     39.92105        -0.000687      0.001190     -0.005553
      1.37489      0.54737     47.31537         0.000252     -0.000437     -0.007745
      1.37623      0.54505     54.76830         0.001744     -0.003021     -0.001860
      2.22124     -0.91855     34.99073        -0.000687      0.001191      0.009319
      0.52889      2.01269     37.45606         0.000669     -0.001158     -0.003424
      2.21869     -0.91413     42.38547         0.001645     -0.002849     -0.001366
      0.52834      2.01364     44.84923         0.000242     -0.000418      0.015956
      2.22180     -0.91953     49.78216        -0.000726      0.001257      0.001796
      0.53176      2.00770     52.25063        -0.002133      0.003694      0.006555
      2.25055     -0.96931     16.57324         0.001245     -0.002156     -0.013227
      2.25387     -0.97508     23.36261        -0.005180      0.008973     -0.004351
      2.23109     -0.93562     30.11740        -0.003422      0.005928     -0.003803
      1.40945      0.48751     21.11005        -0.002737      0.004741     -0.006608
      1.38942      0.52221     27.88302         0.003199     -0.005541     -0.003044
      0.56167      1.95591     18.85993         0.001609     -0.002786     -0.001421
      0.55229      1.97215     25.63416        -0.000163      0.000283     -0.006199
 -----------------------------------------------------------------------------------
    total drift:                               -0.000013      0.000021     -0.002594


--------------------------------------------------------------------------------------------------------



  FREE ENERGIE OF THE ION-ELECTRON SYSTEM (eV)
  ---------------------------------------------------
  free  energy   TOTEN  =      -133.48658202 eV

  energy  without entropy=     -133.48226920  energy(sigma->0) =     -133.48442561
 


--------------------------------------------------------------------------------------------------------


    POTLOK:  cpu time    0.1921: real time    0.1926


--------------------------------------------------------------------------------------------------------


 stress matrix after NEB project (eV)
      9.70050     -0.01925      0.03630
     -0.01925      9.72273     -0.06287
      0.03630     -0.06287      0.43174
  FORCES: max atom, RMS     0.019853    0.008518
  FORCE total and by dimension    0.043431    0.019853
  Stress total and by dimension   13.741502    9.722726
     LOOP+:  cpu time  145.2624: real time  145.6863
    4ORBIT:  cpu time    0.0000: real time    0.0000

 total amount of memory used by VASP MPI-rank0   153026. kBytes
=======================================================================

   base      :      30000. kBytes
   nonl-proj :      36388. kBytes
   fftplans  :      25889. kBytes
   grid      :      13563. kBytes
   one-center:         21. kBytes
   wavefun   :      47165. kBytes
 
  
  
 General timing and accounting informations for this job:
 ========================================================
  
                  Total CPU time used (sec):      162.375
                            User time (sec):      158.406
                          System time (sec):        3.970
                         Elapsed time (sec):      162.846
  
                   Maximum memory used (kb):      213980.
                   Average memory used (kb):           0.
  
                          Minor page faults:       138604
                          Major page faults:            0
                 Voluntary context switches:          177
