  13  13   0   0
  0.1787029E+02  0.3004406E-09  0.3004406E-09  0.2971852E-08  0.5000000E-15
  1.000000000000000E-004
  CAR 
 Al110                                   
      9.94473304    -21.79102791  301     -2.92049806      1.00000000
    -21.791  0.0000E+00  0.0000E+00
    -21.685  0.0000E+00  0.0000E+00
    -21.579  0.0000E+00  0.0000E+00
    -21.474  0.0000E+00  0.0000E+00
    -21.368  0.0000E+00  0.0000E+00
    -21.262  0.0000E+00  0.0000E+00
    -21.156  0.0000E+00  0.0000E+00
    -21.051  0.0000E+00  0.0000E+00
    -20.945  0.0000E+00  0.0000E+00
    -20.839  0.0000E+00  0.0000E+00
    -20.733  0.0000E+00  0.0000E+00
    -20.627  0.1837E-17  0.1943E-18
    -20.522  0.5775E-09  0.6109E-10
    -20.416  0.3370E-04  0.3565E-05
    -20.310  0.1226E-02  0.1332E-03
    -20.204  0.1262E-02  0.2667E-03
    -20.098  0.3652E-02  0.6530E-03
    -19.993  0.2952E-02  0.9653E-03
    -19.887  0.4561E-02  0.1448E-02
    -19.781  0.6260E-02  0.2110E-02
    -19.675  0.6416E-02  0.2789E-02
    -19.570  0.9008E-02  0.3742E-02
    -19.464  0.9119E-02  0.4706E-02
    -19.358  0.1553E-01  0.6349E-02
    -19.252  0.1840E-01  0.8296E-02
    -19.146  0.2671E-01  0.1112E-01
    -19.041  0.3265E-01  0.1458E-01
    -18.935  0.3438E-01  0.1821E-01
    -18.829  0.1565E-01  0.1987E-01
    -18.723  0.1257E-02  0.2000E-01
    -18.617  0.5600E-03  0.2006E-01
    -18.512  0.5336E-02  0.2062E-01
    -18.406  0.8715E-02  0.2155E-01
    -18.300  0.1147E-01  0.2276E-01
    -18.194  0.2016E-01  0.2489E-01
    -18.089  0.1821E-01  0.2682E-01
    -17.983  0.1056E-01  0.2793E-01
    -17.877  0.6148E-03  0.2800E-01
    -17.771  0.1256E-06  0.2800E-01
    -17.665  0.1006E-13  0.2800E-01
    -17.560  0.0000E+00  0.2800E-01
    -17.454  0.0000E+00  0.2800E-01
    -17.348  0.0000E+00  0.2800E-01
    -17.242  0.0000E+00  0.2800E-01
    -17.136  0.0000E+00  0.2800E-01
    -17.031  0.0000E+00  0.2800E-01
    -16.925  0.0000E+00  0.2800E-01
    -16.819  0.0000E+00  0.2800E-01
    -16.713  0.0000E+00  0.2800E-01
    -16.608  0.0000E+00  0.2800E-01
    -16.502  0.0000E+00  0.2800E-01
    -16.396  0.0000E+00  0.2800E-01
    -16.290  0.0000E+00  0.2800E-01
    -16.184  0.0000E+00  0.2800E-01
    -16.079  0.0000E+00  0.2800E-01
    -15.973  0.0000E+00  0.2800E-01
    -15.867  0.0000E+00  0.2800E-01
    -15.761  0.0000E+00  0.2800E-01
    -15.655  0.0000E+00  0.2800E-01
    -15.550  0.0000E+00  0.2800E-01
    -15.444  0.0000E+00  0.2800E-01
    -15.338  0.0000E+00  0.2800E-01
    -15.232  0.0000E+00  0.2800E-01
    -15.127  0.0000E+00  0.2800E-01
    -15.021  0.0000E+00  0.2800E-01
    -14.915  0.0000E+00  0.2800E-01
    -14.809  0.0000E+00  0.2800E-01
    -14.703  0.0000E+00  0.2800E-01
    -14.598  0.0000E+00  0.2800E-01
    -14.492  0.0000E+00  0.2800E-01
    -14.386  0.0000E+00  0.2800E-01
    -14.280  0.0000E+00  0.2800E-01
    -14.174  0.0000E+00  0.2800E-01
    -14.069  0.0000E+00  0.2800E-01
    -13.963  0.0000E+00  0.2800E-01
    -13.857  0.0000E+00  0.2800E-01
    -13.751  0.0000E+00  0.2800E-01
    -13.646  0.0000E+00  0.2800E-01
    -13.540  0.0000E+00  0.2800E-01
    -13.434  0.0000E+00  0.2800E-01
    -13.328  0.0000E+00  0.2800E-01
    -13.222  0.0000E+00  0.2800E-01
    -13.117  0.0000E+00  0.2800E-01
    -13.011  0.0000E+00  0.2800E-01
    -12.905  0.0000E+00  0.2800E-01
    -12.799  0.0000E+00  0.2800E-01
    -12.693  0.0000E+00  0.2800E-01
    -12.588  0.0000E+00  0.2800E-01
    -12.482  0.0000E+00  0.2800E-01
    -12.376  0.0000E+00  0.2800E-01
    -12.270  0.0000E+00  0.2800E-01
    -12.165  0.0000E+00  0.2800E-01
    -12.059  0.0000E+00  0.2800E-01
    -11.953  0.0000E+00  0.2800E-01
    -11.847  0.0000E+00  0.2800E-01
    -11.741  0.0000E+00  0.2800E-01
    -11.636  0.0000E+00  0.2800E-01
    -11.530  0.0000E+00  0.2800E-01
    -11.424  0.0000E+00  0.2800E-01
    -11.318  0.0000E+00  0.2800E-01
    -11.212  0.0000E+00  0.2800E-01
    -11.107  0.0000E+00  0.2800E-01
    -11.001  0.0000E+00  0.2800E-01
    -10.895  0.0000E+00  0.2800E-01
    -10.789  0.0000E+00  0.2800E-01
    -10.684  0.0000E+00  0.2800E-01
    -10.578  0.0000E+00  0.2800E-01
    -10.472  0.0000E+00  0.2800E-01
    -10.366  0.0000E+00  0.2800E-01
    -10.260  0.0000E+00  0.2800E-01
    -10.155  0.0000E+00  0.2800E-01
    -10.049  0.0000E+00  0.2800E-01
     -9.943  0.0000E+00  0.2800E-01
     -9.837  0.0000E+00  0.2800E-01
     -9.731  0.0000E+00  0.2800E-01
     -9.626  0.0000E+00  0.2800E-01
     -9.520  0.0000E+00  0.2800E-01
     -9.414  0.0000E+00  0.2800E-01
     -9.308  0.0000E+00  0.2800E-01
     -9.203  0.0000E+00  0.2800E-01
     -9.097  0.0000E+00  0.2800E-01
     -8.991  0.0000E+00  0.2800E-01
     -8.885  0.0000E+00  0.2800E-01
     -8.779  0.0000E+00  0.2800E-01
     -8.674  0.0000E+00  0.2800E-01
     -8.568  0.0000E+00  0.2800E-01
     -8.462  0.0000E+00  0.2800E-01
     -8.356  0.0000E+00  0.2800E-01
     -8.250  0.0000E+00  0.2800E-01
     -8.145  0.0000E+00  0.2800E-01
     -8.039  0.0000E+00  0.2800E-01
     -7.933  0.0000E+00  0.2800E-01
     -7.827  0.4276E-10  0.2800E-01
     -7.722  0.1417E-04  0.2800E-01
     -7.616  0.1939E-02  0.2821E-01
     -7.510  0.3478E-02  0.2857E-01
     -7.404  0.3405E-02  0.2893E-01
     -7.298  0.3855E-02  0.2934E-01
     -7.193  0.8494E-02  0.3024E-01
     -7.087  0.1028E-01  0.3133E-01
     -6.981  0.1272E-01  0.3267E-01
     -6.875  0.1885E-01  0.3467E-01
     -6.769  0.2616E-01  0.3744E-01
     -6.664  0.1990E-01  0.3954E-01
     -6.558  0.1615E-01  0.4125E-01
     -6.452  0.1258E-01  0.4258E-01
     -6.346  0.9960E-02  0.4363E-01
     -6.241  0.6425E-02  0.4431E-01
     -6.135  0.5767E-02  0.4492E-01
     -6.029  0.1247E-01  0.4624E-01
     -5.923  0.9433E-02  0.4724E-01
     -5.817  0.9873E-02  0.4829E-01
     -5.712  0.1363E-01  0.4973E-01
     -5.606  0.7832E-02  0.5056E-01
     -5.500  0.1996E-01  0.5267E-01
     -5.394  0.1388E-01  0.5414E-01
     -5.288  0.7535E-02  0.5493E-01
     -5.183  0.1078E-01  0.5607E-01
     -5.077  0.2222E-01  0.5842E-01
     -4.971  0.1541E-01  0.6005E-01
     -4.865  0.1248E-01  0.6137E-01
     -4.760  0.1301E-01  0.6275E-01
     -4.654  0.2308E-01  0.6519E-01
     -4.548  0.2188E-01  0.6751E-01
     -4.442  0.2329E-01  0.6997E-01
     -4.336  0.2530E-01  0.7265E-01
     -4.231  0.2603E-01  0.7540E-01
     -4.125  0.3289E-01  0.7888E-01
     -4.019  0.4265E-01  0.8339E-01
     -3.913  0.3468E-01  0.8706E-01
     -3.807  0.2307E-01  0.8950E-01
     -3.702  0.2287E-01  0.9192E-01
     -3.596  0.1846E-01  0.9387E-01
     -3.490  0.1564E-01  0.9553E-01
     -3.384  0.1122E-01  0.9671E-01
     -3.279  0.9102E-02  0.9768E-01
     -3.173  0.9821E-02  0.9871E-01
     -3.067  0.1459E-01  0.1003E+00
     -2.961  0.5330E-01  0.1059E+00
     -2.855  0.3557E-01  0.1097E+00
     -2.750  0.1146E-01  0.1109E+00
     -2.644  0.5899E-02  0.1115E+00
     -2.538  0.3781E-02  0.1119E+00
     -2.432  0.9861E-03  0.1120E+00
     -2.326  0.4580E-05  0.1120E+00
     -2.221  0.8943E-11  0.1120E+00
     -2.115  0.0000E+00  0.1120E+00
     -2.009  0.0000E+00  0.1120E+00
     -1.903  0.0000E+00  0.1120E+00
     -1.797  0.0000E+00  0.1120E+00
     -1.692  0.0000E+00  0.1120E+00
     -1.586  0.0000E+00  0.1120E+00
     -1.480  0.0000E+00  0.1120E+00
     -1.374  0.0000E+00  0.1120E+00
     -1.269  0.0000E+00  0.1120E+00
     -1.163  0.0000E+00  0.1120E+00
     -1.057  0.0000E+00  0.1120E+00
     -0.951  0.0000E+00  0.1120E+00
     -0.845  0.0000E+00  0.1120E+00
     -0.740  0.0000E+00  0.1120E+00
     -0.634  0.0000E+00  0.1120E+00
     -0.528  0.0000E+00  0.1120E+00
     -0.422  0.0000E+00  0.1120E+00
     -0.316  0.0000E+00  0.1120E+00
     -0.211  0.0000E+00  0.1120E+00
     -0.105  0.0000E+00  0.1120E+00
      0.001  0.0000E+00  0.1120E+00
      0.107  0.0000E+00  0.1120E+00
      0.212  0.0000E+00  0.1120E+00
      0.318  0.0000E+00  0.1120E+00
      0.424  0.0000E+00  0.1120E+00
      0.530  0.0000E+00  0.1120E+00
      0.636  0.0000E+00  0.1120E+00
      0.741  0.0000E+00  0.1120E+00
      0.847  0.0000E+00  0.1120E+00
      0.953  0.0000E+00  0.1120E+00
      1.059  0.0000E+00  0.1120E+00
      1.165  0.0000E+00  0.1120E+00
      1.270  0.0000E+00  0.1120E+00
      1.376  0.0000E+00  0.1120E+00
      1.482  0.0000E+00  0.1120E+00
      1.588  0.3357E-13  0.1120E+00
      1.693  0.2193E-06  0.1120E+00
      1.799  0.3367E-03  0.1120E+00
      1.905  0.8357E-03  0.1121E+00
      2.011  0.9060E-05  0.1121E+00
      2.117  0.1433E-04  0.1121E+00
      2.222  0.8956E-03  0.1122E+00
      2.328  0.2716E-03  0.1122E+00
      2.434  0.1126E-06  0.1122E+00
      2.540  0.6729E-09  0.1123E+00
      2.646  0.3601E-04  0.1123E+00
      2.751  0.1101E-02  0.1124E+00
      2.857  0.2186E-02  0.1126E+00
      2.963  0.2583E-03  0.1126E+00
      3.069  0.1756E-02  0.1128E+00
      3.174  0.5715E-03  0.1129E+00
      3.280  0.3991E-06  0.1129E+00
      3.386  0.7188E-06  0.1129E+00
      3.492  0.8229E-03  0.1130E+00
      3.598  0.3825E-02  0.1134E+00
      3.703  0.1268E-02  0.1135E+00
      3.809  0.9127E-03  0.1136E+00
      3.915  0.9425E-03  0.1137E+00
      4.021  0.5116E-03  0.1138E+00
      4.127  0.2286E-02  0.1140E+00
      4.232  0.4670E-02  0.1145E+00
      4.338  0.2299E-02  0.1147E+00
      4.444  0.2238E-02  0.1150E+00
      4.550  0.6480E-03  0.1150E+00
      4.655  0.5274E-02  0.1156E+00
      4.761  0.4642E-02  0.1161E+00
      4.867  0.5200E-02  0.1166E+00
      4.973  0.5356E-02  0.1172E+00
      5.079  0.2849E-02  0.1175E+00
      5.184  0.3465E-02  0.1179E+00
      5.290  0.3782E-02  0.1183E+00
      5.396  0.4305E-02  0.1187E+00
      5.502  0.5445E-02  0.1193E+00
      5.608  0.5542E-02  0.1199E+00
      5.713  0.7582E-02  0.1207E+00
      5.819  0.9461E-02  0.1217E+00
      5.925  0.4186E-02  0.1221E+00
      6.031  0.3108E-02  0.1225E+00
      6.136  0.3583E-02  0.1228E+00
      6.242  0.1173E-01  0.1241E+00
      6.348  0.1222E-01  0.1254E+00
      6.454  0.8917E-02  0.1263E+00
      6.560  0.6506E-02  0.1270E+00
      6.665  0.1110E-01  0.1282E+00
      6.771  0.1625E-01  0.1299E+00
      6.877  0.8654E-02  0.1308E+00
      6.983  0.1358E-01  0.1323E+00
      7.089  0.5089E-02  0.1328E+00
      7.194  0.5159E-02  0.1333E+00
      7.300  0.6087E-02  0.1340E+00
      7.406  0.1229E-01  0.1353E+00
      7.512  0.1175E-01  0.1365E+00
      7.617  0.6203E-02  0.1372E+00
      7.723  0.9859E-02  0.1382E+00
      7.829  0.3033E-02  0.1385E+00
      7.935  0.5001E-02  0.1391E+00
      8.041  0.2854E-02  0.1394E+00
      8.146  0.2229E-02  0.1396E+00
      8.252  0.2224E-02  0.1398E+00
      8.358  0.2838E-03  0.1399E+00
      8.464  0.1634E-03  0.1399E+00
      8.570  0.9846E-03  0.1400E+00
      8.675  0.3362E-04  0.1400E+00
      8.781  0.5775E-09  0.1400E+00
      8.887  0.1837E-17  0.1400E+00
      8.993  0.0000E+00  0.1400E+00
      9.098  0.0000E+00  0.1400E+00
      9.204  0.0000E+00  0.1400E+00
      9.310  0.0000E+00  0.1400E+00
      9.416  0.0000E+00  0.1400E+00
      9.522  0.0000E+00  0.1400E+00
      9.627  0.0000E+00  0.1400E+00
      9.733  0.0000E+00  0.1400E+00
      9.839  0.0000E+00  0.1400E+00
      9.945  0.0000E+00  0.1400E+00
