       N       E                     dE             d eps       ncg     rms          rms(c)
DAV:   1     0.390268728597E+03    0.39027E+03   -0.23334E+04  1400   0.117E+03
DAV:   2    -0.359492681506E+02   -0.42622E+03   -0.41953E+03  1870   0.296E+02
DAV:   3    -0.798405574293E+02   -0.43891E+02   -0.43311E+02  1595   0.105E+02
DAV:   4    -0.807864460873E+02   -0.94589E+00   -0.94379E+00  1925   0.172E+01
DAV:   5    -0.808002618826E+02   -0.13816E-01   -0.13812E-01  1775   0.189E+00
DAV:   6    -0.808006382466E+02   -0.37636E-03   -0.37632E-03  1875   0.296E-01
DAV:   7    -0.808006510310E+02   -0.12784E-04   -0.12784E-04  1755   0.487E-02
DAV:   8    -0.808006514387E+02   -0.40767E-06   -0.40738E-06  1415   0.907E-03    0.170E+01
RMM:   9    -0.725222784694E+02    0.82784E+01   -0.39228E+01  1400   0.268E+01    0.646E+00
RMM:  10    -0.726413477465E+02   -0.11907E+00   -0.18792E+00  1400   0.526E+00    0.467E+00
RMM:  11    -0.723542605677E+02    0.28709E+00   -0.29032E-01  1400   0.222E+00    0.319E+00
RMM:  12    -0.751097869456E+02   -0.27555E+01   -0.67569E-01  1400   0.299E+00    0.102E+01
RMM:  13    -0.729407991774E+02    0.21690E+01   -0.38749E-01  1400   0.245E+00    0.922E+00
RMM:  14    -0.724390504413E+02    0.50175E+00   -0.36329E-02  1400   0.871E-01    0.565E+00
RMM:  15    -0.722538065378E+02    0.18524E+00   -0.21668E-01  1400   0.167E+00    0.938E-01
RMM:  16    -0.723489579320E+02   -0.95151E-01   -0.10705E-02  1400   0.593E-01    0.475E+00
RMM:  17    -0.725290931317E+02   -0.18014E+00   -0.13198E-02  1403   0.434E-01    0.859E+00
RMM:  18    -0.722791275698E+02    0.24997E+00   -0.16336E-02  1400   0.522E-01    0.315E+00
RMM:  19    -0.722792208750E+02   -0.93305E-04   -0.49975E-03  1400   0.424E-01    0.102E+00
RMM:  20    -0.722857336734E+02   -0.65128E-02   -0.21028E-03  1400   0.288E-01    0.124E+00
RMM:  21    -0.722896038865E+02   -0.38702E-02   -0.43905E-04  1368   0.117E-01    0.127E+00
RMM:  22    -0.722812478803E+02    0.83560E-02   -0.54817E-04  1371   0.997E-02    0.492E-01
RMM:  23    -0.722806787760E+02    0.56910E-03   -0.35193E-04  1310   0.717E-02    0.759E-01
RMM:  24    -0.722793133820E+02    0.13654E-02   -0.20982E-04  1283   0.519E-02    0.595E-01
RMM:  25    -0.722764714858E+02    0.28419E-02   -0.16612E-03  1400   0.115E-01    0.680E-01
RMM:  26    -0.722753078858E+02    0.11636E-02   -0.49846E-04  1325   0.693E-02    0.375E-01
RMM:  27    -0.722749086587E+02    0.39923E-03   -0.34855E-04  1287   0.548E-02    0.974E-02
RMM:  28    -0.722750158606E+02   -0.10720E-03   -0.35688E-05   973   0.270E-02    0.174E-01
RMM:  29    -0.722749032843E+02    0.11258E-03   -0.67582E-06   825   0.159E-02    0.521E-02
RMM:  30    -0.722749832935E+02   -0.80009E-04   -0.10602E-05   848   0.152E-02    0.479E-02
RMM:  31    -0.722749924787E+02   -0.91852E-05   -0.86343E-06   821   0.108E-02
   1 F= -.72274992E+02 E0= -.72264263E+02  d E =-.722750E+02
       N       E                     dE             d eps       ncg     rms          rms(c)
DAV:   1    -0.724629326527E+02   -0.18795E+00   -0.11582E+01  1460   0.160E+01
DAV:   2    -0.724812407513E+02   -0.18308E-01   -0.18308E-01  1595   0.187E+00
DAV:   3    -0.724813753585E+02   -0.13461E-03   -0.13461E-03  1845   0.150E-01
DAV:   4    -0.724813770255E+02   -0.16670E-05   -0.16665E-05  1510   0.162E-02
DAV:   5    -0.724813770963E+02   -0.70849E-07   -0.70741E-07  1040   0.376E-03
DAV:   6    -0.724813771133E+02   -0.16989E-07   -0.17007E-07   940   0.173E-03
DAV:   7    -0.724813771185E+02   -0.51959E-08   -0.51700E-08   925   0.920E-04
DAV:   8    -0.724813771202E+02   -0.16580E-08   -0.16428E-08   865   0.508E-04    0.680E+00
RMM:   9    -0.991989713492E+02   -0.26718E+02   -0.12437E+01  1479   0.865E+00    0.307E+01
RMM:  10    -0.751248645177E+02    0.24074E+02   -0.38414E+00  1400   0.681E+00    0.102E+01
RMM:  11    -0.737223590202E+02    0.14025E+01   -0.49079E-01  1400   0.258E+00    0.930E+00
RMM:  12    -0.724488138610E+02    0.12735E+01   -0.43139E-01  1400   0.210E+00    0.353E+00
RMM:  13    -0.733896899771E+02   -0.94088E+00   -0.13822E-01  1400   0.108E+00    0.913E+00
RMM:  14    -0.728583787898E+02    0.53131E+00   -0.93410E-03  1400   0.462E-01    0.884E+00
RMM:  15    -0.733016526903E+02   -0.44327E+00   -0.20850E-01  1400   0.140E+00    0.832E+00
RMM:  16    -0.728457325943E+02    0.45592E+00   -0.87714E-03  1400   0.532E-01    0.818E+00
RMM:  17    -0.723918683322E+02    0.45386E+00   -0.14942E-02  1400   0.387E-01    0.238E+00
RMM:  18    -0.723849083772E+02    0.69600E-02   -0.33368E-03  1400   0.400E-01    0.268E+00
RMM:  19    -0.724129778940E+02   -0.28070E-01   -0.23063E-03  1400   0.231E-01    0.362E+00
RMM:  20    -0.724841689179E+02   -0.71191E-01   -0.27012E-03  1394   0.261E-01    0.513E+00
RMM:  21    -0.724046866685E+02    0.79482E-01   -0.15415E-03  1396   0.230E-01    0.351E+00
RMM:  22    -0.723644962964E+02    0.40190E-01   -0.33477E-03  1400   0.215E-01    0.200E+00
RMM:  23    -0.724424172960E+02   -0.77921E-01   -0.30187E-03  1389   0.211E-01    0.477E+00
RMM:  24    -0.723904662675E+02    0.51951E-01   -0.54982E-04  1363   0.152E-01    0.328E+00
RMM:  25    -0.723593694770E+02    0.31097E-01   -0.56929E-04  1357   0.116E-01    0.143E+00
RMM:  26    -0.723599986575E+02   -0.62918E-03   -0.44349E-04  1350   0.140E-01    0.188E+00
RMM:  27    -0.723650796629E+02   -0.50810E-02   -0.25812E-04  1263   0.754E-02    0.232E+00
RMM:  28    -0.723570085893E+02    0.80711E-02   -0.16460E-04  1255   0.633E-02    0.127E+00
RMM:  29    -0.723533827025E+02    0.36259E-02   -0.23660E-04  1245   0.738E-02    0.628E-01
RMM:  30    -0.723534030443E+02   -0.20342E-04   -0.30969E-04  1225   0.827E-02    0.767E-01
RMM:  31    -0.723527621764E+02    0.64087E-03   -0.17678E-04  1156   0.613E-02    0.392E-01
RMM:  32    -0.723538591469E+02   -0.10970E-02   -0.14282E-04  1200   0.734E-02    0.755E-01
RMM:  33    -0.723531692568E+02    0.68989E-03   -0.52920E-05   994   0.441E-02    0.449E-01
RMM:  34    -0.723531137195E+02    0.55537E-04   -0.38104E-05   976   0.332E-02    0.165E-01
RMM:  35    -0.723532179712E+02   -0.10425E-03   -0.34347E-05  1002   0.362E-02    0.184E-01
RMM:  36    -0.723531930770E+02    0.24894E-04   -0.28044E-06   792   0.102E-02    0.856E-02
RMM:  37    -0.723531625013E+02    0.30576E-04   -0.58171E-06   802   0.169E-02    0.646E-02
RMM:  38    -0.723531737680E+02   -0.11267E-04   -0.13971E-06   578   0.630E-03    0.318E-02
RMM:  39    -0.723531948898E+02   -0.21122E-04   -0.13216E-06   667   0.743E-03    0.202E-02
RMM:  40    -0.723532024578E+02   -0.75679E-05   -0.65957E-07   573   0.551E-03
   2 F= -.72353202E+02 E0= -.72340849E+02  d E =-.782100E-01
       N       E                     dE             d eps       ncg     rms          rms(c)
DAV:   1    -0.726220002791E+02   -0.26881E+00   -0.26440E+01  1400   0.230E+01
DAV:   2    -0.726649344627E+02   -0.42934E-01   -0.42932E-01  1585   0.295E+00
DAV:   3    -0.726652383302E+02   -0.30387E-03   -0.30387E-03  1850   0.236E-01
DAV:   4    -0.726652418765E+02   -0.35463E-05   -0.35463E-05  1740   0.244E-02
DAV:   5    -0.726652419440E+02   -0.67479E-07   -0.67225E-07  1060   0.342E-03
DAV:   6    -0.726652419571E+02   -0.13159E-07   -0.13509E-07   940   0.129E-03
DAV:   7    -0.726652419616E+02   -0.44311E-08   -0.44234E-08   895   0.695E-04
DAV:   8    -0.726652419632E+02   -0.16730E-08   -0.15163E-08   865   0.396E-04    0.810E+00
RMM:   9    -0.112074322532E+03   -0.39409E+02   -0.23852E+01  1510   0.107E+01    0.340E+01
RMM:  10    -0.764025359992E+02    0.35672E+02   -0.55848E+00  1400   0.855E+00    0.111E+01
RMM:  11    -0.745285399314E+02    0.18740E+01   -0.67009E-01  1400   0.314E+00    0.105E+01
RMM:  12    -0.736673217528E+02    0.86122E+00   -0.29387E-01  1400   0.203E+00    0.867E+00
RMM:  13    -0.726476908551E+02    0.10196E+01   -0.12591E-01  1401   0.112E+00    0.646E+00
RMM:  14    -0.739306516033E+02   -0.12830E+01   -0.20566E-01  1400   0.126E+00    0.876E+00
RMM:  15    -0.731037872373E+02    0.82686E+00   -0.29497E-02  1400   0.740E-01    0.810E+00
RMM:  16    -0.725553711916E+02    0.54842E+00   -0.78984E-02  1400   0.869E-01    0.553E+00
RMM:  17    -0.725235577802E+02    0.31813E-01   -0.87984E-03  1400   0.454E-01    0.487E+00
RMM:  18    -0.724217422083E+02    0.10182E+00   -0.51255E-03  1404   0.296E-01    0.134E+00
RMM:  19    -0.724343017530E+02   -0.12560E-01   -0.12808E-03  1399   0.236E-01    0.264E+00
RMM:  20    -0.724232083199E+02    0.11093E-01   -0.64031E-04  1392   0.178E-01    0.242E+00
RMM:  21    -0.727181474277E+02   -0.29494E+00   -0.88948E-03  1400   0.349E-01    0.778E+00
RMM:  22    -0.724224893933E+02    0.29566E+00   -0.38351E-03  1400   0.381E-01    0.260E+00
RMM:  23    -0.724161325611E+02    0.63568E-02   -0.19989E-03  1399   0.258E-01    0.170E+00
RMM:  24    -0.724398272052E+02   -0.23695E-01   -0.15077E-03  1365   0.210E-01    0.320E+00
RMM:  25    -0.724196792274E+02    0.20148E-01   -0.20503E-04  1309   0.101E-01    0.191E+00
RMM:  26    -0.724146966421E+02    0.49826E-02   -0.77403E-04  1353   0.110E-01    0.164E+00
RMM:  27    -0.724087343234E+02    0.59623E-02   -0.48009E-04  1352   0.154E-01    0.604E-01
RMM:  28    -0.724101195388E+02   -0.13852E-02   -0.14568E-04  1251   0.100E-01    0.606E-01
RMM:  29    -0.724097616844E+02    0.35785E-03   -0.78752E-05  1164   0.379E-02    0.575E-01
RMM:  30    -0.724091730663E+02    0.58862E-03   -0.71855E-05  1134   0.644E-02    0.253E-01
RMM:  31    -0.724094663374E+02   -0.29327E-03   -0.32868E-05   961   0.420E-02    0.171E-01
RMM:  32    -0.724095369889E+02   -0.70651E-04   -0.18047E-05   906   0.245E-02    0.188E-01
RMM:  33    -0.724096057931E+02   -0.68804E-04   -0.16732E-05   894   0.277E-02    0.138E-01
RMM:  34    -0.724096258898E+02   -0.20097E-04   -0.11432E-05   852   0.175E-02    0.539E-02
RMM:  35    -0.724096354071E+02   -0.95173E-05   -0.33634E-06   774   0.996E-03
   3 F= -.72409635E+02 E0= -.72397051E+02  d E =-.134643E+00
       N       E                     dE             d eps       ncg     rms          rms(c)
DAV:   1    -0.724294878304E+02   -0.19862E-01   -0.20672E+00  1455   0.644E+00
DAV:   2    -0.724326293463E+02   -0.31415E-02   -0.31413E-02  1595   0.776E-01
DAV:   3    -0.724326520588E+02   -0.22713E-04   -0.22712E-04  1925   0.624E-02
DAV:   4    -0.724326522078E+02   -0.14896E-06   -0.14912E-06  1155   0.587E-03
DAV:   5    -0.724326522286E+02   -0.20844E-07   -0.20892E-07   935   0.189E-03
DAV:   6    -0.724326522347E+02   -0.60941E-08   -0.60188E-08   915   0.945E-04
DAV:   7    -0.724326522367E+02   -0.19240E-08   -0.19018E-08   845   0.517E-04
DAV:   8    -0.724326522372E+02   -0.56798E-09   -0.62387E-09   825   0.283E-04    0.291E+00
RMM:   9    -0.793734193513E+02   -0.69408E+01   -0.15635E+00  1400   0.419E+00    0.118E+01
RMM:  10    -0.739887927989E+02    0.53846E+01   -0.82690E-01  1400   0.324E+00    0.883E+00
RMM:  11    -0.735807806301E+02    0.40801E+00   -0.23446E-02  1400   0.599E-01    0.864E+00
RMM:  12    -0.724262934392E+02    0.11545E+01   -0.49888E-02  1400   0.679E-01    0.384E+00
RMM:  13    -0.724264889455E+02   -0.19551E-03   -0.90474E-03  1400   0.668E-01    0.131E+00
RMM:  14    -0.724251158259E+02    0.13731E-02   -0.63850E-03  1398   0.297E-01    0.210E+00
RMM:  15    -0.724103916307E+02    0.14724E-01   -0.62701E-04  1346   0.115E-01    0.666E-01
RMM:  16    -0.724109333791E+02   -0.54175E-03   -0.56648E-04  1369   0.124E-01    0.632E-01
RMM:  17    -0.724217277384E+02   -0.10794E-01   -0.20234E-03  1394   0.181E-01    0.228E+00
RMM:  18    -0.724216155928E+02    0.11215E-03   -0.35285E-04  1321   0.118E-01    0.278E+00
RMM:  19    -0.724380906592E+02   -0.16475E-01   -0.19531E-03  1400   0.309E-01    0.402E+00
RMM:  20    -0.724139922821E+02    0.24098E-01   -0.12663E-03  1386   0.169E-01    0.222E+00
RMM:  21    -0.724084723961E+02    0.55199E-02   -0.11792E-03  1387   0.196E-01    0.329E-01
RMM:  22    -0.724121596103E+02   -0.36872E-02   -0.40377E-04  1352   0.152E-01    0.482E-01
RMM:  23    -0.724118042478E+02    0.35536E-03   -0.80756E-05  1179   0.521E-02    0.172E-01
RMM:  24    -0.724119285113E+02   -0.12426E-03   -0.24852E-05   929   0.413E-02    0.289E-01
RMM:  25    -0.724118496956E+02    0.78816E-04   -0.77214E-06   816   0.182E-02    0.236E-01
RMM:  26    -0.724118756548E+02   -0.25959E-04   -0.19580E-05   879   0.370E-02    0.676E-02
RMM:  27    -0.724119358309E+02   -0.60176E-04   -0.18874E-06   682   0.802E-03    0.153E-01
RMM:  28    -0.724119042845E+02    0.31546E-04   -0.30141E-06   746   0.109E-02    0.120E-01
RMM:  29    -0.724118932245E+02    0.11060E-04   -0.25413E-06   663   0.706E-03    0.860E-02
RMM:  30    -0.724118901034E+02    0.31211E-05   -0.13367E-06   651   0.546E-03
   4 F= -.72411890E+02 E0= -.72399611E+02  d E =-.136898E+00
       N       E                     dE             d eps       ncg     rms          rms(c)
DAV:   1    -0.724261427968E+02   -0.14250E-01   -0.82494E+00  1400   0.140E+01
DAV:   2    -0.724388673367E+02   -0.12725E-01   -0.12720E-01  1595   0.160E+00
DAV:   3    -0.724389540073E+02   -0.86671E-04   -0.86668E-04  1820   0.123E-01
DAV:   4    -0.724389547083E+02   -0.70102E-06   -0.70124E-06  1305   0.115E-02
DAV:   5    -0.724389547610E+02   -0.52669E-07   -0.52816E-07  1110   0.329E-03
DAV:   6    -0.724389547756E+02   -0.14638E-07   -0.14582E-07   925   0.159E-03
DAV:   7    -0.724389547804E+02   -0.47157E-08   -0.45581E-08   905   0.852E-04
DAV:   8    -0.724389547815E+02   -0.11123E-08   -0.14881E-08   850   0.465E-04    0.184E+00
RMM:   9    -0.764642471174E+02   -0.40253E+01   -0.61667E-01  1400   0.264E+00    0.107E+01
RMM:  10    -0.729876204293E+02    0.34766E+01   -0.34869E-01  1400   0.208E+00    0.862E+00
RMM:  11    -0.731399943530E+02   -0.15237E+00   -0.53024E-03  1399   0.344E-01    0.859E+00
RMM:  12    -0.725508592259E+02    0.58914E+00   -0.38514E-02  1400   0.632E-01    0.716E+00
RMM:  13    -0.725117257805E+02    0.39133E-01   -0.10517E-02  1400   0.625E-01    0.632E+00
RMM:  14    -0.725572781596E+02   -0.45552E-01   -0.38803E-03  1398   0.304E-01    0.707E+00
RMM:  15    -0.724734041009E+02    0.83874E-01   -0.39221E-03  1375   0.254E-01    0.567E+00
RMM:  16    -0.727563799083E+02   -0.28298E+00   -0.46765E-02  1400   0.886E-01    0.824E+00
RMM:  17    -0.728714578894E+02   -0.11508E+00   -0.22474E-01  1400   0.209E+00    0.809E+00
RMM:  18    -0.725107472454E+02    0.36071E+00   -0.87790E-03  1400   0.493E-01    0.442E+00
RMM:  19    -0.725549459415E+02   -0.44199E-01   -0.14468E-03  1398   0.246E-01    0.603E+00
RMM:  20    -0.724443478000E+02    0.11060E+00   -0.54939E-03  1400   0.286E-01    0.148E+00
RMM:  21    -0.724818504151E+02   -0.37503E-01   -0.15579E-02  1400   0.528E-01    0.399E+00
RMM:  22    -0.725287637593E+02   -0.46913E-01   -0.27923E-03  1399   0.311E-01    0.495E+00
RMM:  23    -0.724350635951E+02    0.93700E-01   -0.42226E-03  1392   0.273E-01    0.147E+00
RMM:  24    -0.724333070615E+02    0.17565E-02   -0.63305E-03  1400   0.402E-01    0.200E+00
RMM:  25    -0.724339057150E+02   -0.59865E-03   -0.88439E-04  1354   0.140E-01    0.176E+00
RMM:  26    -0.724255297449E+02    0.83760E-02   -0.57537E-04  1358   0.163E-01    0.111E+00
RMM:  27    -0.724392007955E+02   -0.13671E-01   -0.48173E-04  1343   0.142E-01    0.230E+00
RMM:  28    -0.724235675865E+02    0.15633E-01   -0.34295E-04  1344   0.138E-01    0.521E-01
RMM:  29    -0.724277032395E+02   -0.41357E-02   -0.17385E-04  1295   0.112E-01    0.104E+00
RMM:  30    -0.724249654969E+02    0.27377E-02   -0.11204E-04  1254   0.750E-02    0.448E-01
RMM:  31    -0.724265674787E+02   -0.16020E-02   -0.10919E-04  1236   0.859E-02    0.789E-01
RMM:  32    -0.724250741793E+02    0.14933E-02   -0.55851E-05  1081   0.613E-02    0.169E-01
RMM:  33    -0.724255945000E+02   -0.52032E-03   -0.32291E-05   951   0.504E-02    0.287E-01
RMM:  34    -0.724254621071E+02    0.13239E-03   -0.67135E-06   816   0.200E-02    0.715E-02
RMM:  35    -0.724254838131E+02   -0.21706E-04   -0.36834E-06   768   0.154E-02    0.610E-02
RMM:  36    -0.724254987844E+02   -0.14971E-04   -0.34316E-06   749   0.966E-03    0.171E-02
RMM:  37    -0.724255193396E+02   -0.20555E-04   -0.11518E-06   652   0.650E-03    0.107E-02
RMM:  38    -0.724255285051E+02   -0.91655E-05   -0.38966E-07   456   0.424E-03
   5 F= -.72425529E+02 E0= -.72413262E+02  d E =-.136384E-01
       N       E                     dE             d eps       ncg     rms          rms(c)
DAV:   1    -0.724269677161E+02   -0.14484E-02   -0.18190E+00  1430   0.666E+00
DAV:   2    -0.724297103212E+02   -0.27426E-02   -0.27424E-02  1565   0.754E-01
DAV:   3    -0.724297291853E+02   -0.18864E-04   -0.18864E-04  1845   0.573E-02
DAV:   4    -0.724297293119E+02   -0.12657E-06   -0.12661E-06  1210   0.520E-03
DAV:   5    -0.724297293242E+02   -0.12239E-07   -0.12586E-07   925   0.160E-03
DAV:   6    -0.724297293280E+02   -0.38708E-08   -0.35433E-08   905   0.791E-04
DAV:   7    -0.724297293292E+02   -0.11946E-08   -0.11287E-08   845   0.427E-04
DAV:   8    -0.724297293292E+02   -0.19099E-10   -0.37593E-09   805   0.234E-04    0.768E-01
RMM:   9    -0.738828603965E+02   -0.14531E+01   -0.10664E-01  1400   0.108E+00    0.942E+00
RMM:  10    -0.724652270879E+02    0.14176E+01   -0.62411E-02  1400   0.949E-01    0.428E+00
RMM:  11    -0.724396404166E+02    0.25587E-01   -0.53272E-03  1400   0.281E-01    0.342E+00
RMM:  12    -0.726631279474E+02   -0.22349E+00   -0.76568E-03  1400   0.471E-01    0.760E+00
RMM:  13    -0.724940274568E+02    0.16910E+00   -0.13284E-03  1400   0.258E-01    0.611E+00
RMM:  14    -0.725072087962E+02   -0.13181E-01   -0.50651E-05  1053   0.535E-02    0.641E+00
RMM:  15    -0.726054391883E+02   -0.98230E-01   -0.14554E-03  1391   0.162E-01    0.749E+00
RMM:  16    -0.725589410273E+02    0.46498E-01   -0.22385E-03  1388   0.190E-01    0.679E+00
RMM:  17    -0.725236274710E+02    0.35314E-01   -0.28415E-04  1359   0.888E-02    0.610E+00
RMM:  18    -0.724978895537E+02    0.25738E-01   -0.19031E-04  1359   0.811E-02    0.549E+00
RMM:  19    -0.724275340795E+02    0.70355E-01   -0.19609E-03  1399   0.183E-01    0.147E+00
RMM:  20    -0.724458512052E+02   -0.18317E-01   -0.22243E-03  1399   0.293E-01    0.222E+00
RMM:  21    -0.724379533892E+02    0.78978E-02   -0.13681E-03  1375   0.202E-01    0.123E+00
RMM:  22    -0.724342371762E+02    0.37162E-02   -0.15906E-04  1254   0.106E-01    0.123E+00
RMM:  23    -0.724293586971E+02    0.48785E-02   -0.31866E-04  1368   0.760E-02    0.112E+00
RMM:  24    -0.724276468792E+02    0.17118E-02   -0.10185E-03  1342   0.133E-01    0.110E+00
RMM:  25    -0.724276683590E+02   -0.21480E-04   -0.20572E-04  1272   0.910E-02    0.846E-01
RMM:  26    -0.724264437592E+02    0.12246E-02   -0.59645E-05  1114   0.362E-02    0.537E-01
RMM:  27    -0.724265102608E+02   -0.66502E-04   -0.61322E-05  1064   0.422E-02    0.517E-01
RMM:  28    -0.724264130737E+02    0.97187E-04   -0.83854E-05  1109   0.461E-02    0.378E-01
RMM:  29    -0.724267166659E+02   -0.30359E-03   -0.12057E-04  1199   0.545E-02    0.262E-01
RMM:  30    -0.724269028096E+02   -0.18614E-03   -0.35802E-05   952   0.508E-02    0.717E-02
RMM:  31    -0.724269334419E+02   -0.30632E-04   -0.10140E-05   848   0.186E-02    0.711E-02
RMM:  32    -0.724269300430E+02    0.33988E-05   -0.47081E-06   794   0.136E-02
   6 F= -.72426930E+02 E0= -.72414585E+02  d E =-.150399E-01
       N       E                     dE             d eps       ncg     rms          rms(c)
DAV:   1    -0.724320391791E+02   -0.51057E-02   -0.15590E+00  1400   0.707E+00
DAV:   2    -0.724339360091E+02   -0.18968E-02   -0.18968E-02  1770   0.732E-01
DAV:   3    -0.724339439993E+02   -0.79902E-05   -0.79902E-05  1760   0.463E-02
DAV:   4    -0.724339441064E+02   -0.10709E-06   -0.10706E-06  1345   0.518E-03
DAV:   5    -0.724339441222E+02   -0.15822E-07   -0.15863E-07   930   0.173E-03
DAV:   6    -0.724339441271E+02   -0.49099E-08   -0.47797E-08   865   0.873E-04
DAV:   7    -0.724339441283E+02   -0.12183E-08   -0.16112E-08   835   0.489E-04
DAV:   8    -0.724339441290E+02   -0.71941E-09   -0.56095E-09   835   0.272E-04    0.777E-01
RMM:   9    -0.740126127506E+02   -0.15787E+01   -0.11583E-01  1400   0.119E+00    0.856E+00
RMM:  10    -0.724589081323E+02    0.15537E+01   -0.73702E-02  1400   0.102E+00    0.476E+00
RMM:  11    -0.724178348960E+02    0.41073E-01   -0.24060E-03  1402   0.189E-01    0.400E-01
RMM:  12    -0.724319681889E+02   -0.14133E-01   -0.28620E-03  1399   0.341E-01    0.514E-01
RMM:  13    -0.724322108134E+02   -0.24262E-03   -0.34706E-04  1372   0.108E-01    0.449E-01
RMM:  14    -0.724318586171E+02    0.35220E-03   -0.56245E-05  1221   0.350E-02    0.308E-01
RMM:  15    -0.724343834350E+02   -0.25248E-02   -0.62223E-05  1209   0.535E-02    0.127E+00
RMM:  16    -0.724327281616E+02    0.16553E-02   -0.53380E-05  1081   0.740E-02    0.115E+00
RMM:  17    -0.724323384234E+02    0.38974E-03   -0.74199E-06   833   0.178E-02    0.110E+00
RMM:  18    -0.724317890438E+02    0.54938E-03   -0.10685E-05   852   0.148E-02    0.911E-01
RMM:  19    -0.724310576080E+02    0.73144E-03   -0.52988E-05  1088   0.321E-02    0.357E-01
RMM:  20    -0.724318318531E+02   -0.77425E-03   -0.75506E-05  1144   0.834E-02    0.869E-02
RMM:  21    -0.724318294329E+02    0.24202E-05   -0.14205E-06   787   0.833E-03
   7 F= -.72431829E+02 E0= -.72419753E+02  d E =-.489939E-02
       N       E                     dE             d eps       ncg     rms          rms(c)
DAV:   1    -0.724329302019E+02   -0.10983E-02   -0.45716E-01  1500   0.383E+00
DAV:   2    -0.724334923557E+02   -0.56215E-03   -0.56215E-03  1740   0.399E-01
DAV:   3    -0.724334948317E+02   -0.24760E-05   -0.24763E-05  1710   0.257E-02
DAV:   4    -0.724334948940E+02   -0.62270E-07   -0.62333E-07  1040   0.353E-03
DAV:   5    -0.724334949078E+02   -0.13769E-07   -0.13612E-07   920   0.141E-03
DAV:   6    -0.724334949118E+02   -0.39922E-08   -0.41352E-08   890   0.734E-04
DAV:   7    -0.724334949132E+02   -0.14261E-08   -0.13530E-08   835   0.409E-04
DAV:   8    -0.724334949138E+02   -0.64847E-09   -0.45842E-09   825   0.231E-04    0.442E-01
RMM:   9    -0.732767674254E+02   -0.84327E+00   -0.37126E-02  1400   0.648E-01    0.823E+00
RMM:  10    -0.724179465455E+02    0.85882E+00   -0.26372E-02  1400   0.688E-01    0.156E+00
RMM:  11    -0.724298175325E+02   -0.11871E-01   -0.13477E-03  1396   0.252E-01    0.648E-01
RMM:  12    -0.724329129765E+02   -0.30954E-02   -0.78642E-04  1380   0.187E-01    0.125E-01
RMM:  13    -0.724328461070E+02    0.66870E-04   -0.12974E-04  1277   0.517E-02    0.685E-02
RMM:  14    -0.724329309032E+02   -0.84796E-04   -0.20935E-05   903   0.217E-02    0.241E-01
RMM:  15    -0.724327797219E+02    0.15118E-03   -0.11813E-05   840   0.197E-02    0.921E-02
RMM:  16    -0.724328246909E+02   -0.44969E-04   -0.47739E-06   816   0.129E-02    0.560E-02
RMM:  17    -0.724328527837E+02   -0.28093E-04   -0.33194E-06   822   0.152E-02    0.673E-02
RMM:  18    -0.724328381183E+02    0.14665E-04   -0.52960E-07   627   0.539E-03    0.881E-03
RMM:  19    -0.724328499808E+02   -0.11863E-04   -0.38988E-07   492   0.500E-03    0.981E-03
RMM:  20    -0.724328502056E+02   -0.22479E-06   -0.12010E-07   417   0.351E-03
   8 F= -.72432850E+02 E0= -.72420852E+02  d E =-.592016E-02
       N       E                     dE             d eps       ncg     rms          rms(c)
DAV:   1    -0.724329122509E+02   -0.62270E-04   -0.76498E-02  1510   0.156E+00
DAV:   2    -0.724330092762E+02   -0.97025E-04   -0.97025E-04  1715   0.165E-01
DAV:   3    -0.724330096958E+02   -0.41957E-06   -0.41983E-06  1285   0.111E-02
DAV:   4    -0.724330097387E+02   -0.42977E-07   -0.42838E-07   915   0.340E-03
DAV:   5    -0.724330097496E+02   -0.10901E-07   -0.10594E-07   850   0.156E-03
DAV:   6    -0.724330097524E+02   -0.27699E-08   -0.30997E-08   800   0.806E-04
DAV:   7    -0.724330097537E+02   -0.12692E-08   -0.97943E-09   790   0.426E-04
DAV:   8    -0.724330097536E+02    0.10732E-09   -0.32724E-09   775   0.236E-04    0.178E-01
RMM:   9    -0.726981142346E+02   -0.26510E+00   -0.59943E-03  1400   0.257E-01    0.793E+00
RMM:  10    -0.724118991586E+02    0.28622E+00   -0.57489E-03  1400   0.465E-01    0.341E-01
RMM:  11    -0.724316403362E+02   -0.19741E-01   -0.13584E-03  1394   0.323E-01    0.135E-01
RMM:  12    -0.724328319100E+02   -0.11916E-02   -0.11963E-04  1281   0.790E-02    0.523E-02
RMM:  13    -0.724328986283E+02   -0.66718E-04   -0.91446E-06   859   0.213E-02    0.344E-02
RMM:  14    -0.724329048781E+02   -0.62498E-05   -0.24803E-06   812   0.925E-03
   9 F= -.72432905E+02 E0= -.72421008E+02  d E =-.597484E-02
       N       E                     dE             d eps       ncg     rms          rms(c)
DAV:   1    -0.724329089902E+02   -0.10362E-04   -0.36810E-03  1570   0.344E-01
DAV:   2    -0.724329150783E+02   -0.60881E-05   -0.60881E-05  1820   0.412E-02
DAV:   3    -0.724329150995E+02   -0.21158E-07   -0.21220E-07   935   0.261E-03
DAV:   4    -0.724329151031E+02   -0.35789E-08   -0.36047E-08   800   0.974E-04
DAV:   5    -0.724329151042E+02   -0.11059E-08   -0.10155E-08   775   0.466E-04
DAV:   6    -0.724329151043E+02   -0.10641E-09   -0.33323E-09   750   0.248E-04
DAV:   7    -0.724329151048E+02   -0.51978E-09   -0.11639E-09   745   0.135E-04
DAV:   8    -0.724329151045E+02    0.35197E-09   -0.42560E-10   745   0.769E-05    0.134E-02
RMM:   9    -0.724339264801E+02   -0.10114E-02   -0.26917E-05   928   0.179E-02    0.733E-01
RMM:  10    -0.724325090748E+02    0.14174E-02   -0.34107E-05   970   0.461E-02    0.703E-02
RMM:  11    -0.724329084983E+02   -0.39942E-03   -0.25469E-05   911   0.412E-02    0.196E-02
RMM:  12    -0.724329164809E+02   -0.79826E-05   -0.15355E-06   677   0.826E-03
  10 F= -.72432916E+02 E0= -.72420960E+02  d E =-.598644E-02
       N       E                     dE             d eps       ncg     rms          rms(c)
DAV:   1    -0.724329062457E+02    0.22525E-05   -0.11638E-02  1430   0.610E-01
DAV:   2    -0.724329215419E+02   -0.15296E-04   -0.15296E-04  1750   0.662E-02
DAV:   3    -0.724329216044E+02   -0.62542E-07   -0.62818E-07   940   0.450E-03
DAV:   4    -0.724329216147E+02   -0.10219E-07   -0.10223E-07   800   0.166E-03
DAV:   5    -0.724329216178E+02   -0.31150E-08   -0.28340E-08   750   0.792E-04
DAV:   6    -0.724329216186E+02   -0.84128E-09   -0.91567E-09   710   0.419E-04
DAV:   7    -0.724329216188E+02   -0.18144E-09   -0.31726E-09   700   0.226E-04
DAV:   8    -0.724329216192E+02   -0.38926E-09   -0.11488E-09   700   0.129E-04    0.664E-02
RMM:   9    -0.724685586464E+02   -0.35637E-01   -0.82838E-04  1324   0.954E-02    0.358E+00
RMM:  10    -0.724272877416E+02    0.41271E-01   -0.83572E-04  1355   0.187E-01    0.197E-01
RMM:  11    -0.724325256001E+02   -0.52379E-02   -0.20730E-04  1293   0.129E-01    0.231E-01
RMM:  12    -0.724328731018E+02   -0.34750E-03   -0.30980E-05   965   0.476E-02    0.592E-02
RMM:  13    -0.724328976776E+02   -0.24576E-04   -0.77470E-06   813   0.184E-02    0.181E-02
RMM:  14    -0.724329035511E+02   -0.58735E-05   -0.97239E-07   645   0.606E-03
  11 F= -.72432904E+02 E0= -.72420897E+02  d E =-.597351E-02
       N       E                     dE             d eps       ncg     rms          rms(c)
DAV:   1    -0.724329195446E+02   -0.21867E-04   -0.44540E-03  1485   0.377E-01
DAV:   2    -0.724329263207E+02   -0.67761E-05   -0.67759E-05  1725   0.433E-02
DAV:   3    -0.724329263484E+02   -0.27699E-07   -0.27472E-07   875   0.296E-03
DAV:   4    -0.724329263528E+02   -0.43524E-08   -0.48067E-08   805   0.112E-03
DAV:   5    -0.724329263546E+02   -0.17940E-08   -0.13800E-08   730   0.538E-04
DAV:   6    -0.724329263550E+02   -0.42019E-09   -0.45904E-09   730   0.288E-04
DAV:   7    -0.724329263552E+02   -0.17553E-09   -0.16290E-09   710   0.157E-04
DAV:   8    -0.724329263549E+02    0.27694E-09   -0.59979E-10   700   0.897E-05    0.459E-02
RMM:   9    -0.724565545305E+02   -0.23628E-01   -0.38986E-04  1299   0.655E-02    0.374E+00
RMM:  10    -0.724253798677E+02    0.31175E-01   -0.73434E-04  1394   0.234E-01    0.201E-01
RMM:  11    -0.724325443695E+02   -0.71645E-02   -0.35908E-04  1344   0.188E-01    0.537E-02
RMM:  12    -0.724328911954E+02   -0.34683E-03   -0.25856E-05   936   0.393E-02    0.117E-02
RMM:  13    -0.724329165768E+02   -0.25381E-04   -0.15870E-06   768   0.106E-02    0.908E-03
RMM:  14    -0.724329181150E+02   -0.15382E-05   -0.10641E-07   344   0.345E-03
  12 F= -.72432918E+02 E0= -.72420948E+02  d E =-.598807E-02
       N       E                     dE             d eps       ncg     rms          rms(c)
DAV:   1    -0.724335177108E+02   -0.60113E-03   -0.18230E-01  1400   0.241E+00
DAV:   2    -0.724338090283E+02   -0.29132E-03   -0.29132E-03  1620   0.283E-01
DAV:   3    -0.724338108869E+02   -0.18586E-05   -0.18586E-05  1510   0.213E-02
DAV:   4    -0.724338109810E+02   -0.94049E-07   -0.94430E-07   945   0.503E-03
DAV:   5    -0.724338110041E+02   -0.23117E-07   -0.22617E-07   855   0.228E-03
DAV:   6    -0.724338110102E+02   -0.60895E-08   -0.64033E-08   805   0.115E-03
DAV:   7    -0.724338110121E+02   -0.19022E-08   -0.19545E-08   805   0.604E-04
DAV:   8    -0.724338110128E+02   -0.75033E-09   -0.62648E-09   755   0.330E-04    0.242E-01
RMM:   9    -0.728115563408E+02   -0.37775E+00   -0.12008E-02  1400   0.365E-01    0.799E+00
RMM:  10    -0.724132000464E+02    0.39836E+00   -0.85736E-03  1400   0.505E-01    0.382E-01
RMM:  11    -0.724325862613E+02   -0.19386E-01   -0.25277E-03  1400   0.350E-01    0.349E-01
RMM:  12    -0.724334016885E+02   -0.81543E-03   -0.80429E-05  1191   0.630E-02    0.296E-01
RMM:  13    -0.724335135872E+02   -0.11190E-03   -0.77292E-05  1156   0.588E-02    0.306E-02
RMM:  14    -0.724335392202E+02   -0.25633E-04   -0.75241E-06   837   0.161E-02    0.472E-02
RMM:  15    -0.724335314161E+02    0.78041E-05   -0.33334E-06   814   0.961E-03
  13 F= -.72433531E+02 E0= -.72421617E+02  d E =-.613301E-03
       N       E                     dE             d eps       ncg     rms          rms(c)
DAV:   1    -0.724337966135E+02   -0.25739E-03   -0.57581E-01  1420   0.429E+00
DAV:   2    -0.724347109364E+02   -0.91432E-03   -0.91432E-03  1620   0.503E-01
DAV:   3    -0.724347170423E+02   -0.61059E-05   -0.61058E-05  1860   0.376E-02
DAV:   4    -0.724347170885E+02   -0.46232E-07   -0.46497E-07  1080   0.356E-03
DAV:   5    -0.724347170971E+02   -0.85424E-08   -0.83678E-08   890   0.130E-03
DAV:   6    -0.724347170998E+02   -0.27012E-08   -0.24679E-08   820   0.656E-04
DAV:   7    -0.724347171002E+02   -0.40473E-09   -0.79717E-09   820   0.362E-04
DAV:   8    -0.724347171007E+02   -0.50795E-09   -0.26630E-09   820   0.200E-04    0.380E-01
RMM:   9    -0.730732974377E+02   -0.63858E+00   -0.29458E-02  1400   0.577E-01    0.814E+00
RMM:  10    -0.724157739800E+02    0.65752E+00   -0.17755E-02  1400   0.608E-01    0.633E-01
RMM:  11    -0.724324152516E+02   -0.16641E-01   -0.35985E-03  1400   0.353E-01    0.153E-01
RMM:  12    -0.724349072984E+02   -0.24920E-02   -0.17388E-04  1307   0.890E-02    0.776E-01
RMM:  13    -0.724335550915E+02    0.13522E-02   -0.70371E-05  1165   0.708E-02    0.114E-01
RMM:  14    -0.724339327065E+02   -0.37761E-03   -0.31484E-05   956   0.451E-02    0.308E-02
RMM:  15    -0.724339263441E+02    0.63624E-05   -0.87476E-06   831   0.145E-02
  14 F= -.72433926E+02 E0= -.72422051E+02  d E =-.100823E-02
       N       E                     dE             d eps       ncg     rms          rms(c)
DAV:   1    -0.724341268458E+02   -0.19414E-03   -0.42416E-02  1590   0.113E+00
DAV:   2    -0.724341965667E+02   -0.69721E-04   -0.69721E-04  1575   0.133E-01
DAV:   3    -0.724341971075E+02   -0.54079E-06   -0.54087E-06  1320   0.106E-02
DAV:   4    -0.724341971362E+02   -0.28777E-07   -0.29161E-07   850   0.287E-03
DAV:   5    -0.724341971433E+02   -0.71063E-08   -0.67638E-08   810   0.128E-03
DAV:   6    -0.724341971451E+02   -0.17353E-08   -0.19868E-08   790   0.654E-04
DAV:   7    -0.724341971461E+02   -0.10018E-08   -0.63343E-09   760   0.349E-04
DAV:   8    -0.724341971459E+02    0.21464E-09   -0.21330E-09   760   0.192E-04    0.464E-02
RMM:   9    -0.724498499073E+02   -0.15653E-01   -0.28693E-04  1304   0.585E-02    0.254E+00
RMM:  10    -0.724312208273E+02    0.18629E-01   -0.39276E-04  1336   0.134E-01    0.114E-01
RMM:  11    -0.724340002602E+02   -0.27794E-02   -0.13862E-04  1274   0.977E-02    0.444E-02
RMM:  12    -0.724341864686E+02   -0.18621E-03   -0.15579E-05   868   0.279E-02    0.391E-02
RMM:  13    -0.724341956249E+02   -0.91563E-05   -0.26146E-06   761   0.108E-02
  15 F= -.72434196E+02 E0= -.72422310E+02  d E =-.269281E-03
       N       E                     dE             d eps       ncg     rms          rms(c)
DAV:   1    -0.724343184569E+02   -0.13199E-03   -0.38325E-01  1400   0.339E+00
DAV:   2    -0.724349310064E+02   -0.61255E-03   -0.61254E-03  1570   0.396E-01
DAV:   3    -0.724349357734E+02   -0.47670E-05   -0.47675E-05  1725   0.313E-02
DAV:   4    -0.724349358480E+02   -0.74612E-07   -0.74315E-07   980   0.391E-03
DAV:   5    -0.724349358647E+02   -0.16695E-07   -0.16824E-07   825   0.158E-03
DAV:   6    -0.724349358700E+02   -0.53178E-08   -0.50641E-08   785   0.814E-04
DAV:   7    -0.724349358718E+02   -0.17681E-08   -0.16354E-08   770   0.448E-04
DAV:   8    -0.724349358721E+02   -0.32833E-09   -0.54817E-09   730   0.251E-04    0.155E-01
RMM:   9    -0.726335963181E+02   -0.19866E+00   -0.44972E-03  1400   0.226E-01    0.779E+00
RMM:  10    -0.724143238111E+02    0.21927E+00   -0.44248E-03  1400   0.441E-01    0.330E-01
RMM:  11    -0.724337133949E+02   -0.19390E-01   -0.15132E-03  1395   0.327E-01    0.153E-01
RMM:  12    -0.724347330295E+02   -0.10196E-02   -0.96353E-05  1239   0.689E-02    0.161E-01
RMM:  13    -0.724348136491E+02   -0.80620E-04   -0.24276E-05   923   0.366E-02    0.293E-02
RMM:  14    -0.724348406596E+02   -0.27010E-04   -0.76612E-06   825   0.163E-02    0.896E-02
RMM:  15    -0.724348189502E+02    0.21709E-04   -0.26379E-06   802   0.109E-02    0.282E-02
RMM:  16    -0.724348313913E+02   -0.12441E-04   -0.80492E-07   598   0.576E-03    0.541E-02
RMM:  17    -0.724348256389E+02    0.57525E-05   -0.86495E-07   711   0.783E-03
  16 F= -.72434826E+02 E0= -.72422897E+02  d E =-.899295E-03
       N       E                     dE             d eps       ncg     rms          rms(c)
DAV:   1    -0.724336290586E+02    0.12023E-02   -0.15365E+00  1400   0.680E+00
DAV:   2    -0.724360248798E+02   -0.23958E-02   -0.23957E-02  1580   0.790E-01
DAV:   3    -0.724360440935E+02   -0.19214E-04   -0.19214E-04  1820   0.628E-02
DAV:   4    -0.724360442338E+02   -0.14035E-06   -0.14037E-06  1150   0.612E-03
DAV:   5    -0.724360442494E+02   -0.15522E-07   -0.15387E-07   920   0.191E-03
DAV:   6    -0.724360442537E+02   -0.43192E-08   -0.44350E-08   895   0.946E-04
DAV:   7    -0.724360442552E+02   -0.15248E-08   -0.14408E-08   825   0.521E-04
DAV:   8    -0.724360442557E+02   -0.54979E-09   -0.48457E-09   790   0.287E-04    0.306E-01
RMM:   9    -0.729463878867E+02   -0.51034E+00   -0.17560E-02  1400   0.449E-01    0.807E+00
RMM:  10    -0.724165233738E+02    0.52986E+00   -0.12615E-02  1400   0.549E-01    0.650E-01
RMM:  11    -0.724343161617E+02   -0.17793E-01   -0.16397E-03  1399   0.305E-01    0.500E-01
RMM:  12    -0.724357347425E+02   -0.14186E-02   -0.23727E-04  1346   0.119E-01    0.329E-01
RMM:  13    -0.724354904657E+02    0.24428E-03   -0.97706E-05  1224   0.531E-02    0.295E-02
RMM:  14    -0.724355927861E+02   -0.10232E-03   -0.22216E-05   886   0.303E-02    0.620E-02
RMM:  15    -0.724355926081E+02    0.17800E-06   -0.59398E-06   829   0.158E-02
  17 F= -.72435593E+02 E0= -.72423639E+02  d E =-.166626E-02
       N       E                     dE             d eps       ncg     rms          rms(c)
DAV:   1    -0.724364462911E+02   -0.85351E-03   -0.98265E-02  1565   0.139E+00
DAV:   2    -0.724365927608E+02   -0.14647E-03   -0.14647E-03  1565   0.160E-01
DAV:   3    -0.724365938665E+02   -0.11057E-05   -0.11054E-05  1490   0.134E-02
DAV:   4    -0.724365939134E+02   -0.46894E-07   -0.47144E-07   950   0.314E-03
DAV:   5    -0.724365939240E+02   -0.10610E-07   -0.10946E-07   840   0.142E-03
DAV:   6    -0.724365939276E+02   -0.35739E-08   -0.30659E-08   795   0.721E-04
DAV:   7    -0.724365939284E+02   -0.79899E-09   -0.92459E-09   780   0.380E-04
DAV:   8    -0.724365939287E+02   -0.35152E-09   -0.29531E-09   745   0.207E-04    0.402E-01
RMM:   9    -0.731392131092E+02   -0.70262E+00   -0.31325E-02  1400   0.584E-01    0.895E+00
RMM:  10    -0.724228714448E+02    0.71634E+00   -0.20801E-02  1400   0.635E-01    0.233E+00
RMM:  11    -0.724324468983E+02   -0.95755E-02   -0.17843E-03  1400   0.275E-01    0.113E+00
RMM:  12    -0.724363662318E+02   -0.39193E-02   -0.14126E-03  1391   0.229E-01    0.623E-01
RMM:  13    -0.724360158350E+02    0.35040E-03   -0.79026E-05  1209   0.447E-02    0.206E-01
RMM:  14    -0.724366480109E+02   -0.63218E-03   -0.25747E-05   905   0.385E-02    0.560E-01
RMM:  15    -0.724361350247E+02    0.51299E-03   -0.32875E-05   972   0.541E-02    0.368E-01
RMM:  16    -0.724359253047E+02    0.20972E-03   -0.83634E-06   805   0.134E-02    0.831E-02
RMM:  17    -0.724360870042E+02   -0.16170E-03   -0.10075E-05   865   0.251E-02    0.738E-02
RMM:  18    -0.724361041114E+02   -0.17107E-04   -0.37435E-06   791   0.107E-02    0.252E-02
RMM:  19    -0.724361214625E+02   -0.17351E-04   -0.18370E-06   772   0.113E-02    0.231E-02
RMM:  20    -0.724361203773E+02    0.10852E-05   -0.31693E-07   522   0.447E-03
  18 F= -.72436120E+02 E0= -.72424167E+02  d E =-.527769E-03
       N       E                     dE             d eps       ncg     rms          rms(c)
DAV:   1    -0.724369355686E+02   -0.81411E-03   -0.23297E-01  1490   0.214E+00
DAV:   2    -0.724372770305E+02   -0.34146E-03   -0.34146E-03  1565   0.244E-01
DAV:   3    -0.724372796750E+02   -0.26445E-05   -0.26447E-05  1700   0.203E-02
DAV:   4    -0.724372797261E+02   -0.51097E-07   -0.50974E-07   955   0.284E-03
DAV:   5    -0.724372797386E+02   -0.12488E-07   -0.12417E-07   835   0.122E-03
DAV:   6    -0.724372797427E+02   -0.40377E-08   -0.36656E-08   820   0.645E-04
DAV:   7    -0.724372797438E+02   -0.10796E-08   -0.11392E-08   790   0.347E-04
DAV:   8    -0.724372797437E+02    0.10095E-09   -0.36692E-09   790   0.195E-04    0.484E-01
RMM:   9    -0.732760905796E+02   -0.83881E+00   -0.43665E-02  1400   0.684E-01    0.904E+00
RMM:  10    -0.724297877704E+02    0.84630E+00   -0.26727E-02  1400   0.683E-01    0.272E+00
RMM:  11    -0.724397024440E+02   -0.99147E-02   -0.23538E-03  1400   0.268E-01    0.245E+00
RMM:  12    -0.724415982818E+02   -0.18958E-02   -0.25556E-03  1397   0.316E-01    0.213E+00
RMM:  13    -0.724393719980E+02    0.22263E-02   -0.23102E-04  1289   0.687E-02    0.179E+00
RMM:  14    -0.724372149688E+02    0.21570E-02   -0.23859E-04  1309   0.658E-02    0.100E+00
RMM:  15    -0.724362062179E+02    0.10088E-02   -0.41894E-04  1362   0.175E-01    0.240E-01
RMM:  16    -0.724366337936E+02   -0.42758E-03   -0.18072E-05   879   0.262E-02    0.509E-01
RMM:  17    -0.724365454851E+02    0.88309E-04   -0.27909E-05   960   0.279E-02    0.519E-01
RMM:  18    -0.724361526883E+02    0.39280E-03   -0.43705E-05  1036   0.279E-02    0.219E-01
RMM:  19    -0.724363927941E+02   -0.24011E-03   -0.34515E-05   954   0.544E-02    0.135E-01
RMM:  20    -0.724363632825E+02    0.29512E-04   -0.82534E-06   848   0.192E-02    0.856E-02
RMM:  21    -0.724363638856E+02   -0.60314E-06   -0.40893E-06   801   0.167E-02
  19 F= -.72436364E+02 E0= -.72424321E+02  d E =-.771278E-03
       N       E                     dE             d eps       ncg     rms          rms(c)
DAV:   1    -0.724363911449E+02   -0.27862E-04   -0.35707E-03  1580   0.263E-01
DAV:   2    -0.724363966038E+02   -0.54589E-05   -0.54589E-05  1510   0.304E-02
DAV:   3    -0.724363966609E+02   -0.57108E-07   -0.57288E-07   985   0.337E-03
DAV:   4    -0.724363966722E+02   -0.11240E-07   -0.11122E-07   815   0.131E-03
DAV:   5    -0.724363966751E+02   -0.29859E-08   -0.31811E-08   790   0.636E-04
DAV:   6    -0.724363966764E+02   -0.12869E-08   -0.10261E-08   760   0.343E-04
DAV:   7    -0.724363966766E+02   -0.18326E-09   -0.35309E-09   760   0.186E-04
DAV:   8    -0.724363966768E+02   -0.15052E-09   -0.12800E-09   760   0.107E-04    0.630E-02
RMM:   9    -0.724786976221E+02   -0.42301E-01   -0.79893E-04  1333   0.930E-02    0.479E+00
RMM:  10    -0.724261312535E+02    0.52566E-01   -0.11951E-03  1399   0.292E-01    0.227E-01
RMM:  11    -0.724358438836E+02   -0.97126E-02   -0.69312E-04  1384   0.235E-01    0.794E-02
RMM:  12    -0.724363348470E+02   -0.49096E-03   -0.54202E-05  1118   0.521E-02    0.320E-02
RMM:  13    -0.724363875592E+02   -0.52712E-04   -0.49532E-06   812   0.181E-02    0.949E-03
RMM:  14    -0.724363913796E+02   -0.38205E-05   -0.52388E-07   503   0.476E-03
  20 F= -.72436391E+02 E0= -.72424428E+02  d E =-.798772E-03
       N       E                     dE             d eps       ncg     rms          rms(c)
DAV:   1    -0.724364411629E+02   -0.53604E-04   -0.44843E-02  1480   0.934E-01
DAV:   2    -0.724365074271E+02   -0.66264E-04   -0.66264E-04  1595   0.106E-01
DAV:   3    -0.724365079239E+02   -0.49682E-06   -0.49694E-06  1250   0.892E-03
DAV:   4    -0.724365079522E+02   -0.28350E-07   -0.28077E-07   835   0.247E-03
DAV:   5    -0.724365079584E+02   -0.62032E-08   -0.63528E-08   790   0.109E-03
DAV:   6    -0.724365079602E+02   -0.18049E-08   -0.18646E-08   760   0.556E-04
DAV:   7    -0.724365079611E+02   -0.80627E-09   -0.59572E-09   745   0.297E-04
DAV:   8    -0.724365079609E+02    0.11414E-09   -0.20210E-09   730   0.163E-04    0.206E-01
RMM:   9    -0.727402834536E+02   -0.30378E+00   -0.83965E-03  1400   0.303E-01    0.795E+00
RMM:  10    -0.724158436567E+02    0.32444E+00   -0.67323E-03  1400   0.479E-01    0.349E-01
RMM:  11    -0.724354850105E+02   -0.19641E-01   -0.21998E-03  1400   0.347E-01    0.347E-01
RMM:  12    -0.724361677160E+02   -0.68271E-03   -0.75478E-05  1168   0.610E-02    0.212E-01
RMM:  13    -0.724363326211E+02   -0.16491E-03   -0.79908E-05  1153   0.543E-02    0.267E-02
RMM:  14    -0.724363326473E+02   -0.26164E-07   -0.37236E-06   815   0.107E-02
  21 F= -.72436333E+02 E0= -.72424442E+02  d E =-.740039E-03
       N       E                     dE             d eps       ncg     rms          rms(c)
DAV:   1    -0.724364351327E+02   -0.10251E-03   -0.24512E-02  1625   0.692E-01
DAV:   2    -0.724364720068E+02   -0.36874E-04   -0.36874E-04  1560   0.794E-02
DAV:   3    -0.724364722588E+02   -0.25202E-06   -0.25195E-06  1180   0.667E-03
DAV:   4    -0.724364722890E+02   -0.30200E-07   -0.29806E-07   860   0.215E-03
DAV:   5    -0.724364722976E+02   -0.85902E-08   -0.87198E-08   820   0.103E-03
DAV:   6    -0.724364723001E+02   -0.24784E-08   -0.28994E-08   780   0.556E-04
DAV:   7    -0.724364723011E+02   -0.10714E-08   -0.10149E-08   765   0.300E-04
DAV:   8    -0.724364723019E+02   -0.79945E-09   -0.37015E-09   760   0.173E-04    0.131E-01
RMM:   9    -0.725384467700E+02   -0.10197E+00   -0.32200E-03  1393   0.185E-01    0.533E+00
RMM:  10    -0.724255855624E+02    0.11286E+00   -0.23197E-03  1399   0.285E-01    0.711E-01
RMM:  11    -0.724353252907E+02   -0.97397E-02   -0.51369E-04  1350   0.188E-01    0.260E-01
RMM:  12    -0.724364270065E+02   -0.11017E-02   -0.26493E-04  1315   0.931E-02    0.171E-01
RMM:  13    -0.724363590518E+02    0.67955E-04   -0.41380E-05  1023   0.329E-02    0.611E-02
RMM:  14    -0.724363990040E+02   -0.39952E-04   -0.47266E-06   822   0.180E-02    0.467E-02
RMM:  15    -0.724363969291E+02    0.20749E-05   -0.83013E-07   564   0.554E-03
  22 F= -.72436397E+02 E0= -.72424433E+02  d E =-.804321E-03
       N       E                     dE             d eps       ncg     rms          rms(c)
DAV:   1    -0.724366320574E+02   -0.23305E-03   -0.53866E-02  1555   0.104E+00
DAV:   2    -0.724367089878E+02   -0.76930E-04   -0.76930E-04  1560   0.116E-01
DAV:   3    -0.724367096737E+02   -0.68595E-06   -0.68586E-06  1255   0.101E-02
DAV:   4    -0.724367097081E+02   -0.34324E-07   -0.34515E-07   805   0.279E-03
DAV:   5    -0.724367097159E+02   -0.78035E-08   -0.73529E-08   760   0.121E-03
DAV:   6    -0.724367097176E+02   -0.17180E-08   -0.21409E-08   745   0.612E-04
DAV:   7    -0.724367097183E+02   -0.69303E-09   -0.68252E-09   745   0.329E-04
DAV:   8    -0.724367097184E+02   -0.93223E-10   -0.23047E-09   745   0.179E-04    0.232E-01
RMM:   9    -0.727598227677E+02   -0.32311E+00   -0.10525E-02  1400   0.341E-01    0.871E+00
RMM:  10    -0.724111914646E+02    0.34863E+00   -0.82109E-03  1400   0.506E-01    0.146E+00
RMM:  11    -0.724328726935E+02   -0.21681E-01   -0.13193E-03  1383   0.308E-01    0.346E-01
RMM:  12    -0.724364841339E+02   -0.36114E-02   -0.49016E-04  1357   0.144E-01    0.885E-02
RMM:  13    -0.724365238266E+02   -0.39693E-04   -0.75677E-05  1175   0.389E-02    0.487E-02
RMM:  14    -0.724365665482E+02   -0.42722E-04   -0.48874E-06   843   0.156E-02    0.337E-02
RMM:  15    -0.724365628327E+02    0.37155E-05   -0.19333E-06   648   0.674E-03
  23 F= -.72436563E+02 E0= -.72424660E+02  d E =-.165904E-03
       N       E                     dE             d eps       ncg     rms          rms(c)
DAV:   1    -0.724367433524E+02   -0.17680E-03   -0.92140E-02  1525   0.137E+00
DAV:   2    -0.724368756770E+02   -0.13232E-03   -0.13232E-03  1595   0.152E-01
DAV:   3    -0.724368768749E+02   -0.11979E-05   -0.11981E-05  1355   0.133E-02
DAV:   4    -0.724368769201E+02   -0.45223E-07   -0.44719E-07   930   0.315E-03
DAV:   5    -0.724368769298E+02   -0.96998E-08   -0.10021E-07   810   0.139E-03
DAV:   6    -0.724368769326E+02   -0.28649E-08   -0.27367E-08   760   0.699E-04
DAV:   7    -0.724368769334E+02   -0.73169E-09   -0.80869E-09   760   0.365E-04
DAV:   8    -0.724368769338E+02   -0.42201E-09   -0.25293E-09   760   0.197E-04    0.276E-01
RMM:   9    -0.728562374473E+02   -0.41936E+00   -0.14839E-02  1400   0.405E-01    0.879E+00
RMM:  10    -0.724136258549E+02    0.44261E+00   -0.10744E-02  1400   0.536E-01    0.171E+00
RMM:  11    -0.724324320989E+02   -0.18806E-01   -0.13831E-03  1388   0.299E-01    0.400E-01
RMM:  12    -0.724365900046E+02   -0.41579E-02   -0.67329E-04  1362   0.161E-01    0.919E-02
RMM:  13    -0.724366266560E+02   -0.36651E-04   -0.94134E-05  1217   0.433E-02    0.589E-02
RMM:  14    -0.724366572933E+02   -0.30637E-04   -0.59597E-06   849   0.166E-02    0.252E-02
RMM:  15    -0.724366553818E+02    0.19115E-05   -0.27745E-06   688   0.753E-03
  24 F= -.72436655E+02 E0= -.72424818E+02  d E =-.258453E-03
       N       E                     dE             d eps       ncg     rms          rms(c)
DAV:   1    -0.724366817844E+02   -0.24491E-04   -0.17983E-02  1625   0.625E-01
DAV:   2    -0.724367105056E+02   -0.28721E-04   -0.28721E-04  1540   0.696E-02
DAV:   3    -0.724367107504E+02   -0.24480E-06   -0.24499E-06  1150   0.592E-03
DAV:   4    -0.724367107731E+02   -0.22690E-07   -0.22562E-07   820   0.185E-03
DAV:   5    -0.724367107801E+02   -0.69290E-08   -0.64948E-08   775   0.860E-04
DAV:   6    -0.724367107819E+02   -0.18567E-08   -0.22331E-08   775   0.461E-04
DAV:   7    -0.724367107826E+02   -0.64438E-09   -0.81285E-09   775   0.251E-04
DAV:   8    -0.724367107832E+02   -0.59345E-09   -0.30750E-09   745   0.144E-04    0.437E-02
RMM:   9    -0.724522397878E+02   -0.15529E-01   -0.23335E-04  1270   0.518E-02    0.307E+00
RMM:  10    -0.724319519811E+02    0.20288E-01   -0.51963E-04  1374   0.197E-01    0.216E-01
RMM:  11    -0.724365479153E+02   -0.45959E-02   -0.25144E-04  1328   0.159E-01    0.382E-02
RMM:  12    -0.724367025199E+02   -0.15460E-03   -0.18987E-05   892   0.324E-02    0.150E-02
RMM:  13    -0.724367055149E+02   -0.29950E-05   -0.10561E-06   717   0.732E-03
  25 F= -.72436706E+02 E0= -.72424819E+02  d E =-.501332E-04
       N       E                     dE             d eps       ncg     rms          rms(c)
DAV:   1    -0.724366029312E+02    0.99589E-04   -0.16244E-01  1400   0.187E+00
DAV:   2    -0.724368582561E+02   -0.25532E-03   -0.25532E-03  1545   0.206E-01
DAV:   3    -0.724368605193E+02   -0.22631E-05   -0.22631E-05  1565   0.173E-02
DAV:   4    -0.724368605604E+02   -0.41139E-07   -0.41214E-07   925   0.264E-03
DAV:   5    -0.724368605708E+02   -0.10398E-07   -0.99099E-08   845   0.113E-03
DAV:   6    -0.724368605735E+02   -0.27380E-08   -0.30067E-08   800   0.590E-04
DAV:   7    -0.724368605745E+02   -0.96452E-09   -0.96825E-09   775   0.320E-04
DAV:   8    -0.724368605748E+02   -0.33651E-09   -0.32360E-09   740   0.182E-04    0.600E-02
RMM:   9    -0.724379174702E+02   -0.10569E-02   -0.98897E-05  1244   0.374E-02    0.821E-01
RMM:  10    -0.724370662397E+02    0.85123E-03   -0.84729E-05  1186   0.650E-02    0.597E-01
RMM:  11    -0.724367608924E+02    0.30535E-03   -0.16695E-04  1264   0.884E-02    0.148E-01
RMM:  12    -0.724367673274E+02   -0.64350E-05   -0.17118E-05   864   0.185E-02
  26 F= -.72436767E+02 E0= -.72424831E+02  d E =-.111946E-03
       N       E                     dE             d eps       ncg     rms          rms(c)
DAV:   1    -0.724368141289E+02   -0.53237E-04   -0.14075E-02  1460   0.567E-01
DAV:   2    -0.724368359934E+02   -0.21864E-04   -0.21865E-04  1595   0.661E-02
DAV:   3    -0.724368361502E+02   -0.15678E-06   -0.15677E-06   975   0.550E-03
DAV:   4    -0.724368361766E+02   -0.26445E-07   -0.26564E-07   805   0.196E-03
DAV:   5    -0.724368361849E+02   -0.83264E-08   -0.83839E-08   760   0.951E-04
DAV:   6    -0.724368361880E+02   -0.31196E-08   -0.29364E-08   745   0.522E-04
DAV:   7    -0.724368361891E+02   -0.10787E-08   -0.10756E-08   740   0.284E-04
DAV:   8    -0.724368361897E+02   -0.61664E-09   -0.40682E-09   730   0.166E-04    0.762E-02
RMM:   9    -0.724847522220E+02   -0.47916E-01   -0.11353E-03  1340   0.112E-01    0.399E+00
RMM:  10    -0.724297834131E+02    0.54969E-01   -0.10701E-03  1363   0.207E-01    0.352E-01
RMM:  11    -0.724361911421E+02   -0.64077E-02   -0.23464E-04  1301   0.137E-01    0.214E-01
RMM:  12    -0.724367741460E+02   -0.58300E-03   -0.52770E-05  1036   0.582E-02    0.311E-02
RMM:  13    -0.724368045149E+02   -0.30369E-04   -0.76828E-06   800   0.155E-02    0.157E-02
RMM:  14    -0.724368196736E+02   -0.15159E-04   -0.11780E-06   659   0.670E-03    0.320E-02
RMM:  15    -0.724368186322E+02    0.10414E-05   -0.10114E-06   599   0.534E-03
  27 F= -.72436819E+02 E0= -.72424956E+02  d E =-.513048E-04
       N       E                     dE             d eps       ncg     rms          rms(c)
DAV:   1    -0.724368221055E+02   -0.24319E-05   -0.13836E-02  1480   0.562E-01
DAV:   2    -0.724368437674E+02   -0.21662E-04   -0.21662E-04  1535   0.646E-02
DAV:   3    -0.724368439203E+02   -0.15289E-06   -0.15291E-06   885   0.545E-03
DAV:   4    -0.724368439488E+02   -0.28513E-07   -0.28616E-07   745   0.200E-03
DAV:   5    -0.724368439582E+02   -0.94228E-08   -0.91247E-08   735   0.970E-04
DAV:   6    -0.724368439613E+02   -0.30991E-08   -0.32337E-08   730   0.534E-04
DAV:   7    -0.724368439625E+02   -0.11864E-08   -0.11970E-08   725   0.290E-04
DAV:   8    -0.724368439630E+02   -0.51296E-09   -0.45741E-09   715   0.171E-04    0.442E-02
RMM:   9    -0.724532562576E+02   -0.16412E-01   -0.36602E-04  1287   0.633E-02    0.259E+00
RMM:  10    -0.724339731320E+02    0.19283E-01   -0.35823E-04  1336   0.130E-01    0.212E-01
RMM:  11    -0.724365402195E+02   -0.25671E-02   -0.10123E-04  1199   0.871E-02    0.747E-02
RMM:  12    -0.724368024683E+02   -0.26225E-03   -0.16277E-05   867   0.350E-02    0.112E-02
RMM:  13    -0.724368252446E+02   -0.22776E-04   -0.16461E-06   696   0.814E-03    0.174E-02
RMM:  14    -0.724368319888E+02   -0.67442E-05   -0.27727E-07   412   0.443E-03
  28 F= -.72436832E+02 E0= -.72424931E+02  d E =-.646614E-04
       N       E                     dE             d eps       ncg     rms          rms(c)
DAV:   1    -0.724367793034E+02    0.45941E-04   -0.55292E-02  1430   0.112E+00
DAV:   2    -0.724368643505E+02   -0.85047E-04   -0.85047E-04  1565   0.128E-01
DAV:   3    -0.724368650650E+02   -0.71448E-06   -0.71410E-06  1215   0.106E-02
DAV:   4    -0.724368651022E+02   -0.37247E-07   -0.37538E-07   790   0.292E-03
DAV:   5    -0.724368651105E+02   -0.82905E-08   -0.81603E-08   755   0.127E-03
DAV:   6    -0.724368651130E+02   -0.24661E-08   -0.24454E-08   730   0.642E-04
DAV:   7    -0.724368651140E+02   -0.98635E-09   -0.80276E-09   725   0.347E-04
DAV:   8    -0.724368651138E+02    0.18008E-09   -0.27907E-09   715   0.189E-04    0.105E-01
RMM:   9    -0.725162959574E+02   -0.79431E-01   -0.21089E-03  1371   0.152E-01    0.484E+00
RMM:  10    -0.724271867647E+02    0.89109E-01   -0.17539E-03  1389   0.256E-01    0.649E-01
RMM:  11    -0.724357439455E+02   -0.85572E-02   -0.35876E-04  1332   0.167E-01    0.151E-01
RMM:  12    -0.724367732498E+02   -0.10293E-02   -0.12311E-04  1198   0.751E-02    0.476E-02
RMM:  13    -0.724367945535E+02   -0.21304E-04   -0.18300E-05   899   0.195E-02    0.486E-02
RMM:  14    -0.724368158758E+02   -0.21322E-04   -0.24815E-06   785   0.110E-02    0.391E-02
RMM:  15    -0.724368165982E+02   -0.72239E-06   -0.14031E-06   600   0.586E-03
  29 F= -.72436817E+02 E0= -.72424966E+02  d E =-.492708E-04
       N       E                     dE             d eps       ncg     rms          rms(c)
DAV:   1    -0.724368248722E+02   -0.89964E-05   -0.19141E-02  1500   0.660E-01
DAV:   2    -0.724368546992E+02   -0.29827E-04   -0.29827E-04  1575   0.758E-02
DAV:   3    -0.724368549178E+02   -0.21859E-06   -0.21839E-06  1005   0.636E-03
DAV:   4    -0.724368549522E+02   -0.34437E-07   -0.34827E-07   780   0.228E-03
DAV:   5    -0.724368549628E+02   -0.10576E-07   -0.10684E-07   755   0.109E-03
DAV:   6    -0.724368549670E+02   -0.42041E-08   -0.37526E-08   720   0.597E-04
DAV:   7    -0.724368549681E+02   -0.10923E-08   -0.13833E-08   700   0.326E-04
DAV:   8    -0.724368549690E+02   -0.84492E-09   -0.52794E-09   700   0.191E-04    0.637E-02
RMM:   9    -0.724814893325E+02   -0.44634E-01   -0.77166E-04  1324   0.924E-02    0.498E+00
RMM:  10    -0.724260964044E+02    0.55393E-01   -0.12928E-03  1399   0.305E-01    0.230E-01
RMM:  11    -0.724362736271E+02   -0.10177E-01   -0.66475E-04  1387   0.242E-01    0.731E-02
RMM:  12    -0.724367886963E+02   -0.51507E-03   -0.49713E-05  1094   0.526E-02    0.260E-02
RMM:  13    -0.724368357371E+02   -0.47041E-04   -0.43300E-06   810   0.172E-02    0.760E-03
RMM:  14    -0.724368384938E+02   -0.27567E-05   -0.53543E-07   536   0.503E-03
  30 F= -.72436838E+02 E0= -.72424985E+02  d E =-.711664E-04
       N       E                     dE             d eps       ncg     rms          rms(c)
DAV:   1    -0.724368559982E+02   -0.20261E-04   -0.15107E-02  1480   0.670E-01
DAV:   2    -0.724368808228E+02   -0.24825E-04   -0.24825E-04  1590   0.798E-02
DAV:   3    -0.724368809731E+02   -0.15035E-06   -0.15040E-06   885   0.631E-03
DAV:   4    -0.724368810017E+02   -0.28548E-07   -0.28386E-07   745   0.235E-03
DAV:   5    -0.724368810103E+02   -0.86766E-08   -0.88626E-08   745   0.113E-03
DAV:   6    -0.724368810132E+02   -0.29081E-08   -0.31085E-08   745   0.622E-04
DAV:   7    -0.724368810148E+02   -0.15202E-08   -0.11417E-08   730   0.338E-04
DAV:   8    -0.724368810150E+02   -0.20464E-09   -0.43443E-09   730   0.199E-04    0.238E-02
RMM:   9    -0.724421372194E+02   -0.52562E-02   -0.95662E-05  1187   0.334E-02    0.156E+00
RMM:  10    -0.724357728875E+02    0.63643E-02   -0.13782E-04  1265   0.880E-02    0.687E-02
RMM:  11    -0.724368001733E+02   -0.10273E-02   -0.41135E-05  1002   0.622E-02    0.235E-02
RMM:  12    -0.724368686566E+02   -0.68483E-04   -0.46265E-06   776   0.194E-02    0.374E-03
RMM:  13    -0.724368765656E+02   -0.79090E-05   -0.37580E-07   457   0.474E-03
  31 F= -.72436877E+02 E0= -.72425019E+02  d E =-.380719E-04
       N       E                     dE             d eps       ncg     rms          rms(c)
DAV:   1    -0.724367660793E+02    0.10258E-03   -0.13561E-01  1405   0.201E+00
DAV:   2    -0.724369833782E+02   -0.21730E-03   -0.21730E-03  1565   0.235E-01
DAV:   3    -0.724369849711E+02   -0.15929E-05   -0.15929E-05  1300   0.187E-02
DAV:   4    -0.724369850518E+02   -0.80773E-07   -0.80972E-07   875   0.496E-03
DAV:   5    -0.724369850708E+02   -0.18934E-07   -0.18556E-07   805   0.220E-03
DAV:   6    -0.724369850759E+02   -0.51386E-08   -0.51601E-08   765   0.110E-03
DAV:   7    -0.724369850771E+02   -0.11401E-08   -0.15556E-08   715   0.572E-04
DAV:   8    -0.724369850780E+02   -0.97543E-09   -0.49474E-09   700   0.311E-04    0.992E-02
RMM:   9    -0.725111211713E+02   -0.74136E-01   -0.17892E-03  1393   0.143E-01    0.471E+00
RMM:  10    -0.724272501091E+02    0.83871E-01   -0.17068E-03  1381   0.254E-01    0.507E-01
RMM:  11    -0.724359930403E+02   -0.87429E-02   -0.33492E-04  1336   0.165E-01    0.240E-01
RMM:  12    -0.724368605618E+02   -0.86752E-03   -0.65821E-05  1127   0.706E-02    0.149E-02
RMM:  13    -0.724369249580E+02   -0.64396E-04   -0.75016E-06   821   0.165E-02    0.291E-02
RMM:  14    -0.724369288699E+02   -0.39119E-05   -0.16786E-06   731   0.663E-03
  32 F= -.72436929E+02 E0= -.72425051E+02  d E =-.903761E-04
       N       E                     dE             d eps       ncg     rms          rms(c)
DAV:   1    -0.724369012448E+02    0.23713E-04   -0.27210E-02  1455   0.900E-01
DAV:   2    -0.724369442035E+02   -0.42959E-04   -0.42958E-04  1565   0.105E-01
DAV:   3    -0.724369444879E+02   -0.28434E-06   -0.28447E-06   975   0.862E-03
DAV:   4    -0.724369445380E+02   -0.50185E-07   -0.49923E-07   805   0.322E-03
DAV:   5    -0.724369445531E+02   -0.15028E-07   -0.15172E-07   770   0.153E-03
DAV:   6    -0.724369445584E+02   -0.53592E-08   -0.52541E-08   730   0.839E-04
DAV:   7    -0.724369445600E+02   -0.15966E-08   -0.19112E-08   730   0.453E-04
DAV:   8    -0.724369445610E+02   -0.10050E-08   -0.72359E-09   715   0.265E-04    0.466E-02
RMM:   9    -0.724572070020E+02   -0.20262E-01   -0.40709E-04  1301   0.679E-02    0.284E+00
RMM:  10    -0.724333346284E+02    0.23872E-01   -0.46733E-04  1344   0.146E-01    0.161E-01
RMM:  11    -0.724366174702E+02   -0.32828E-02   -0.10731E-04  1217   0.979E-02    0.144E-01
RMM:  12    -0.724369038699E+02   -0.28640E-03   -0.19833E-05   885   0.394E-02    0.976E-03
RMM:  13    -0.724369308808E+02   -0.27011E-04   -0.17918E-06   730   0.903E-03    0.714E-03
RMM:  14    -0.724369344156E+02   -0.35349E-05   -0.34796E-07   412   0.400E-03
  33 F= -.72436934E+02 E0= -.72425079E+02  d E =-.959219E-04
       N       E                     dE             d eps       ncg     rms          rms(c)
DAV:   1    -0.724369945917E+02   -0.63711E-04   -0.75566E-03  1460   0.499E-01
DAV:   2    -0.724370046226E+02   -0.10031E-04   -0.10031E-04  1860   0.546E-02
DAV:   3    -0.724370046553E+02   -0.32708E-07   -0.32688E-07   935   0.331E-03
DAV:   4    -0.724370046605E+02   -0.52314E-08   -0.50886E-08   760   0.122E-03
DAV:   5    -0.724370046616E+02   -0.11460E-08   -0.13129E-08   760   0.575E-04
DAV:   6    -0.724370046620E+02   -0.37016E-09   -0.39795E-09   730   0.299E-04
DAV:   7    -0.724370046621E+02   -0.80945E-10   -0.13030E-09   715   0.160E-04
DAV:   8    -0.724370046618E+02    0.24056E-09   -0.44878E-10   715   0.893E-05    0.796E-02
RMM:   9    -0.725095728348E+02   -0.72568E-01   -0.12633E-03  1346   0.119E-01    0.601E+00
RMM:  10    -0.724228343797E+02    0.86738E-01   -0.19397E-03  1400   0.356E-01    0.268E-01
RMM:  11    -0.724362349751E+02   -0.13401E-01   -0.86043E-04  1393   0.279E-01    0.813E-02
RMM:  12    -0.724369221584E+02   -0.68718E-03   -0.51913E-05  1106   0.567E-02    0.380E-02
RMM:  13    -0.724369824060E+02   -0.60248E-04   -0.63245E-06   833   0.206E-02    0.946E-03
RMM:  14    -0.724369848029E+02   -0.23969E-05   -0.78576E-07   620   0.564E-03
  34 F= -.72436985E+02 E0= -.72425154E+02  d E =-.503872E-04
       N       E                     dE             d eps       ncg     rms          rms(c)
DAV:   1    -0.724370540692E+02   -0.71663E-04   -0.30790E-02  1465   0.101E+00
DAV:   2    -0.724370945567E+02   -0.40488E-04   -0.40488E-04  1840   0.110E-01
DAV:   3    -0.724370946842E+02   -0.12751E-06   -0.12782E-06   970   0.652E-03
DAV:   4    -0.724370947037E+02   -0.19488E-07   -0.19197E-07   825   0.231E-03
DAV:   5    -0.724370947088E+02   -0.50986E-08   -0.49810E-08   790   0.109E-03
DAV:   6    -0.724370947101E+02   -0.12337E-08   -0.15267E-08   775   0.569E-04
DAV:   7    -0.724370947106E+02   -0.59572E-09   -0.50306E-09   750   0.307E-04
DAV:   8    -0.724370947109E+02   -0.30013E-09   -0.17489E-09   720   0.172E-04    0.182E-01
RMM:   9    -0.727263097900E+02   -0.28922E+00   -0.66147E-03  1400   0.273E-01    0.792E+00
RMM:  10    -0.724164911448E+02    0.30982E+00   -0.62493E-03  1400   0.476E-01    0.384E-01
RMM:  11    -0.724357639479E+02   -0.19273E-01   -0.13144E-03  1395   0.319E-01    0.296E-01
RMM:  12    -0.724369428802E+02   -0.11789E-02   -0.90810E-05  1223   0.885E-02    0.798E-02
RMM:  13    -0.724369950172E+02   -0.52137E-04   -0.68883E-06   854   0.182E-02    0.182E-02
RMM:  14    -0.724370031801E+02   -0.81629E-05   -0.15971E-06   816   0.828E-03
  35 F= -.72437003E+02 E0= -.72425178E+02  d E =-.687645E-04
       N       E                     dE             d eps       ncg     rms          rms(c)
DAV:   1    -0.724371184295E+02   -0.12341E-03   -0.20128E-02  1510   0.729E-01
DAV:   2    -0.724371494407E+02   -0.31011E-04   -0.31011E-04  1575   0.862E-02
DAV:   3    -0.724371496055E+02   -0.16473E-06   -0.16466E-06  1045   0.630E-03
DAV:   4    -0.724371496306E+02   -0.25120E-07   -0.25027E-07   835   0.221E-03
DAV:   5    -0.724371496376E+02   -0.70481E-08   -0.74177E-08   795   0.104E-03
DAV:   6    -0.724371496403E+02   -0.27112E-08   -0.25128E-08   775   0.561E-04
DAV:   7    -0.724371496411E+02   -0.77853E-09   -0.89742E-09   770   0.304E-04
DAV:   8    -0.724371496415E+02   -0.36107E-09   -0.33292E-09   760   0.175E-04    0.210E-01
RMM:   9    -0.727684950290E+02   -0.33135E+00   -0.88383E-03  1400   0.313E-01    0.795E+00
RMM:  10    -0.724167129539E+02    0.35178E+00   -0.73297E-03  1400   0.490E-01    0.364E-01
RMM:  11    -0.724358477467E+02   -0.19135E-01   -0.19234E-03  1400   0.337E-01    0.123E-01
RMM:  12    -0.724370560904E+02   -0.12083E-02   -0.15814E-04  1318   0.812E-02    0.300E-01
RMM:  13    -0.724369674158E+02    0.88675E-04   -0.21986E-05   895   0.414E-02    0.386E-02
RMM:  14    -0.724370045491E+02   -0.37133E-04   -0.48982E-06   812   0.167E-02    0.169E-02
RMM:  15    -0.724370035155E+02    0.10337E-05   -0.10906E-06   564   0.534E-03
  36 F= -.72437004E+02 E0= -.72425168E+02  d E =-.335339E-06
