 vasp.5.4.4.18Apr17-6-g9f103f2a35 (build Nov 15 2019 10:10:58) complex          
  
 executed on             LinuxIFC date 2024.06.26  20:04:27
 running on   20 total cores
 distrk:  each k-point on   20 cores,    1 groups
 distr:  one band on NCORES_PER_BAND=   4 cores,    5 groups


--------------------------------------------------------------------------------------------------------


 INCAR:
 POTCAR:    PAW_PBE Mg 13Apr2007                  
 POTCAR:    PAW_PBE O 08Apr2002                   
 POTCAR:    PAW_PBE Mg 13Apr2007                  
   VRHFIN =Mg: s2p0                                                             
   LEXCH  = PE                                                                  
   EATOM  =    23.0369 eV,    1.6932 Ry                                         
                                                                                
   TITEL  = PAW_PBE Mg 13Apr2007                                                
   LULTRA =        F    use ultrasoft PP ?                                      
   IUNSCR =        1    unscreen: 0-lin 1-nonlin 2-no                           
   RPACOR =    1.500    partial core radius                                     
   POMASS =   24.305; ZVAL   =    2.000    mass and valenz                      
   RCORE  =    2.000    outmost cutoff radius                                   
   RWIGS  =    2.880; RWIGS  =    1.524    wigner-seitz radius (au A)           
   ENMAX  =  200.000; ENMIN  =  100.000 eV                                      
   RCLOC  =    1.506    cutoff for local pot                                    
   LCOR   =        T    correct aug charges                                     
   LPAW   =        T    paw PP                                                  
   EAUG   =  454.734                                                            
   DEXC   =    0.000                                                            
   RMAX   =    2.045    core radius for proj-oper                               
   RAUG   =    1.300    factor for augmentation sphere                          
   RDEP   =    2.025    radius for radial grids                                 
   RDEPT  =    1.942    core radius for aug-charge                              
                                                                                
   Atomic configuration                                                         
    6 entries                                                                   
     n  l   j            E        occ.                                          
     1  0  0.50     -1259.6230   2.0000                                         
     2  0  0.50       -79.8442   2.0000                                         
     2  1  1.50       -46.6121   6.0000                                         
     3  0  0.50        -4.7055   2.0000                                         
     3  1  0.50        -1.3660   0.0000                                         
     3  2  1.50        -1.3606   0.0000                                         
   Description                                                                  
     l       E           TYP  RCUT    TYP  RCUT                                 
     0     -4.7054661     23  2.000                                             
     0     27.2116520     23  2.000                                             
     1      1.3605826     23  2.000                                             
     1     27.2116520     23  2.000                                             
     2     -1.3605826     23  2.000                                             
  local pseudopotential read in
  partial core-charges read in
  partial kinetic energy density read in
  atomic valenz-charges read in
  non local Contribution for L=           0  read in
    real space projection operators read in
  non local Contribution for L=           0  read in
    real space projection operators read in
  non local Contribution for L=           1  read in
    real space projection operators read in
  non local Contribution for L=           1  read in
    real space projection operators read in
  non local Contribution for L=           2  read in
    real space projection operators read in
    PAW grid and wavefunctions read in
 
   number of l-projection  operators is LMAX  =           5
   number of lm-projection operators is LMMAX =          13
 
 POTCAR:    PAW_PBE O 08Apr2002                   
   VRHFIN =O: s2p4                                                              
   LEXCH  = PE                                                                  
   EATOM  =   432.3788 eV,   31.7789 Ry                                         
                                                                                
   TITEL  = PAW_PBE O 08Apr2002                                                 
   LULTRA =        F    use ultrasoft PP ?                                      
   IUNSCR =        1    unscreen: 0-lin 1-nonlin 2-no                           
   RPACOR =    1.200    partial core radius                                     
   POMASS =   16.000; ZVAL   =    6.000    mass and valenz                      
   RCORE  =    1.520    outmost cutoff radius                                   
   RWIGS  =    1.550; RWIGS  =    0.820    wigner-seitz radius (au A)           
   ENMAX  =  400.000; ENMIN  =  300.000 eV                                      
   ICORE  =        2    local potential                                         
   LCOR   =        T    correct aug charges                                     
   LPAW   =        T    paw PP                                                  
   EAUG   =  605.392                                                            
   DEXC   =    0.000                                                            
   RMAX   =    1.553    core radius for proj-oper                               
   RAUG   =    1.300    factor for augmentation sphere                          
   RDEP   =    1.550    radius for radial grids                                 
   RDEPT  =    1.329    core radius for aug-charge                              
                                                                                
   Atomic configuration                                                         
    4 entries                                                                   
     n  l   j            E        occ.                                          
     1  0  0.50      -514.6923   2.0000                                         
     2  0  0.50       -23.9615   2.0000                                         
     2  1  0.50        -9.0305   4.0000                                         
     3  2  1.50        -9.5241   0.0000                                         
   Description                                                                  
     l       E           TYP  RCUT    TYP  RCUT                                 
     0    -23.9615318     23  1.200                                             
     0     -9.5240782     23  1.200                                             
     1     -9.0304911     23  1.520                                             
     1      8.1634956     23  1.520                                             
     2     -9.5240782      7  1.500                                             
  local pseudopotential read in
  partial core-charges read in
  partial kinetic energy density read in
  kinetic energy density of atom read in
  atomic valenz-charges read in
  non local Contribution for L=           0  read in
    real space projection operators read in
  non local Contribution for L=           0  read in
    real space projection operators read in
  non local Contribution for L=           1  read in
    real space projection operators read in
  non local Contribution for L=           1  read in
    real space projection operators read in
    PAW grid and wavefunctions read in
 
   number of l-projection  operators is LMAX  =           4
   number of lm-projection operators is LMMAX =           8
 
 Optimization of the real space projectors (new method)

 maximal supplied QI-value         = 18.90
 optimisation between [QCUT,QGAM] = [ 10.77, 27.02] = [ 32.49,204.49] Ry 
 Optimized for a Real-space Cutoff    1.14 Angstroem

   l    n(q)    QCUT    max X(q) W(low)/X(q) W(high)/X(q)  e(spline) 
   0      9    10.771    28.265    0.55E-04    0.11E-03    0.18E-06
   0      9    10.771    10.429    0.35E-04    0.89E-04    0.15E-06
   1      9    10.771    13.073    0.36E-03    0.68E-04    0.34E-06
   1      9    10.771     9.625    0.30E-03    0.60E-04    0.28E-06
   2      8    10.771     4.652    0.10E-03    0.16E-03    0.22E-06
 Optimization of the real space projectors (new method)

 maximal supplied QI-value         = 24.76
 optimisation between [QCUT,QGAM] = [ 10.64, 26.98] = [ 31.73,203.89] Ry 
 Optimized for a Real-space Cutoff    0.98 Angstroem

   l    n(q)    QCUT    max X(q) W(low)/X(q) W(high)/X(q)  e(spline) 
   0      8    10.645    20.381    0.22E-03    0.11E-04    0.15E-06
   0      8    10.645    15.268    0.23E-03    0.14E-04    0.16E-06
   1      7    10.645     5.964    0.39E-03    0.37E-03    0.76E-07
   1      7    10.645     5.382    0.33E-03    0.32E-03    0.66E-07
  PAW_PBE Mg 13Apr2007                  :
 energy of atom  1       EATOM=  -23.0369
 kinetic energy error for atom=    0.0001 (will be added to EATOM!!)
  PAW_PBE O 08Apr2002                   :
 energy of atom  2       EATOM= -432.3788
 kinetic energy error for atom=    0.0389 (will be added to EATOM!!)
 
 
 POSCAR: MgO13                                   
  positions in direct lattice
  No initial velocities read in
 exchange correlation table for  LEXCH =        8
   RHO(1)=    0.500       N(1)  =     2000
   RHO(2)=  100.500       N(2)  =     4000

 VTST: version 3.2, (02/03/18)

 CHAIN: initializing optimizer
 
 OPT: Using VASP Conjugate-Gradient optimizer
 CHAIN: Read ICHAIN            0
 
 POSCAR: MgO13                                   
  positions in direct lattice
  No initial velocities read in
 


--------------------------------------------------------------------------------------------------------


 ion  position               nearest neighbor table
   1  0.000  0.000  0.157-  10 2.12  12 2.12  10 2.12  12 2.12  10 2.12  12 2.12   2 3.00   5 3.00
                             2 3.00   5 3.00   5 3.00   2 3.00
   2  0.333  0.667  0.240-   8 2.12  10 2.12  10 2.12   8 2.12   8 2.12  10 2.12   6 3.00   1 3.00
                             6 3.00   1 3.00   1 3.00   6 3.00
   3  0.000  0.000  0.405-  11 2.12  13 2.12  11 2.12  13 2.12  11 2.12  13 2.12   4 3.00   6 3.00
                             4 3.00   6 3.00   6 3.00   4 3.00
   4  0.333  0.667  0.488-   9 2.12  11 2.12  11 2.12   9 2.12   9 2.12  11 2.12   3 3.00   3 3.00
                             3 3.00
   5  0.667  0.333  0.075-   7 2.12  12 2.12  12 2.12   7 2.12   7 2.12  12 2.12   1 3.00   1 3.00
                             1 3.00
   6  0.667  0.333  0.323-   8 2.12  13 2.12  13 2.12   8 2.12   8 2.12  13 2.12   2 3.00   3 3.00
                             2 3.00   3 3.00   3 3.00   2 3.00
   7  0.000  0.000  0.034-   5 2.12   5 2.12   5 2.12
   8  0.000  0.000  0.281-   2 2.12   6 2.12   6 2.12   2 2.12   6 2.12   2 2.12
   9  0.000  0.000  0.529-   4 2.12   4 2.12   4 2.12
  10  0.667  0.333  0.199-   1 2.12   2 2.12   2 2.12   1 2.12   1 2.12   2 2.12
  11  0.667  0.333  0.446-   3 2.12   4 2.12   4 2.12   3 2.12   3 2.12   4 2.12
  12  0.333  0.667  0.116-   1 2.12   5 2.12   5 2.12   1 2.12   1 2.12   5 2.12
  13  0.333  0.667  0.364-   3 2.12   6 2.12   6 2.12   3 2.12   3 2.12   6 2.12
 
  LATTYP: Found a hexagonal cell.
 ALAT       =     3.0044062036
 C/A-ratio  =     9.8916454082
  
  Lattice vectors:
  
 A1 = (   2.1244360000,  -2.1244350000,   0.0000000000)
 A2 = (   0.0000000000,   2.1244360000,  -2.1244360000)
 A3 = (  17.1579960000,  17.1579960000,  17.1579960000)


Analysis of symmetry for initial positions (statically):
=====================================================================
 Subroutine PRICEL returns:
 Original cell was already a primitive cell.
 

 Routine SETGRP: Setting up the symmetry group for a 
 hexagonal supercell.


 Subroutine GETGRP returns: Found 12 space group operations
 (whereof  6 operations were pure point group operations)
 out of a pool of 24 trial point group operations.


The static configuration has the point symmetry C_3v.
 The point group associated with its full space group is D_3d.


Analysis of symmetry for dynamics (positions and initial velocities):
=====================================================================
 Subroutine PRICEL returns:
 Original cell was already a primitive cell.
 

 Routine SETGRP: Setting up the symmetry group for a 
 hexagonal supercell.


 Subroutine GETGRP returns: Found 12 space group operations
 (whereof  6 operations were pure point group operations)
 out of a pool of 24 trial point group operations.


The dynamic configuration has the point symmetry C_3v.
 The point group associated with its full space group is D_3d.


Analysis of constrained symmetry for selective dynamics:
=====================================================================
 Subroutine PRICEL returns:
 Original cell was already a primitive cell.
 

 Routine SETGRP: Setting up the symmetry group for a 
 hexagonal supercell.


 Subroutine GETGRP returns: Found  6 space group operations
 (whereof  6 operations were pure point group operations)
 out of a pool of 24 trial point group operations.


The constrained configuration has the point symmetry C_3v.


 Subroutine INISYM returns: Found  6 space group operations
 (whereof  6 operations are pure point group operations),
 and found     1 'primitive' translations

 
 
 KPOINTS: K-Spacing Value to Generate K-Mesh: 0.02

Automatic generation of k-mesh.
Space group operators:
 irot       det(A)        alpha          n_x          n_y          n_z        tau_x        tau_y        tau_z
    1     1.000000     0.000000     1.000000     0.000000     0.000000     0.000000     0.000000     0.000000
    2     1.000000   120.000000    -0.577350    -0.577350    -0.577350     0.000000     0.000000     0.000000
    3     1.000000   120.000000     0.577350     0.577350     0.577350     0.000000     0.000000     0.000000
    4    -1.000000   180.000000     0.707107    -0.707107    -0.000000     0.000000     0.000000     0.000000
    5    -1.000000   180.000000    -0.000000     0.707107    -0.707107     0.000000     0.000000     0.000000
    6    -1.000000   180.000000    -0.707107     0.000000     0.707107     0.000000     0.000000     0.000000
 
 Subroutine IBZKPT returns following result:
 ===========================================
 
 Found     20 irreducible k-points:
 
 Following reciprocal coordinates:
            Coordinates               Weight
  0.062500  0.062500  0.000000     48.000000
  0.187500  0.062500  0.000000     96.000000
  0.312500  0.062500  0.000000     96.000000
  0.437500  0.062500  0.000000     96.000000
 -0.437500  0.062500 -0.000000     96.000000
 -0.312500  0.062500  0.000000     96.000000
 -0.187500  0.062500 -0.000000     96.000000
 -0.062500  0.062500  0.000000     48.000000
  0.187500  0.187500  0.000000     48.000000
  0.312500  0.187500  0.000000     96.000000
  0.437500  0.187500  0.000000     96.000000
 -0.437500  0.187500  0.000000     96.000000
 -0.312500  0.187500  0.000000     96.000000
 -0.187500  0.187500  0.000000     48.000000
  0.312500  0.312500  0.000000     48.000000
  0.437500  0.312500  0.000000     96.000000
 -0.437500  0.312500 -0.000000     96.000000
 -0.312500  0.312500  0.000000     48.000000
  0.437500  0.437500  0.000000     48.000000
 -0.437500  0.437500  0.000000     48.000000
 
 Following cartesian coordinates:
            Coordinates               Weight
  0.029420  0.000000 -0.029420     48.000000
  0.068646 -0.019613 -0.049033     96.000000
  0.107872 -0.039226 -0.068646     96.000000
  0.147098 -0.058839 -0.088259     96.000000
 -0.127485  0.078452  0.049033     96.000000
 -0.088259  0.058839  0.029420     96.000000
 -0.049033  0.039226  0.009807     96.000000
 -0.009807  0.019613 -0.009807     48.000000
  0.088259  0.000000 -0.088259     48.000000
  0.127485 -0.019613 -0.107872     96.000000
  0.166711 -0.039226 -0.127485     96.000000
 -0.107872  0.098065  0.009807     96.000000
 -0.068646  0.078452 -0.009807     96.000000
 -0.029420  0.058839 -0.029420     48.000000
  0.147098  0.000000 -0.147098     48.000000
  0.186324 -0.019613 -0.166711     96.000000
 -0.088259  0.117678 -0.029420     96.000000
 -0.049033  0.098065 -0.049033     48.000000
  0.205937  0.000000 -0.205937     48.000000
 -0.068646  0.137291 -0.068646     48.000000
 


--------------------------------------------------------------------------------------------------------




 Dimension of arrays:
   k-points           NKPTS =     20   k-points in BZ     NKDIM =     20   number of bands    NBANDS=     35
   number of dos      NEDOS =    301   number of ions     NIONS =     13
   non local maximal  LDIM  =      5   non local SUM 2l+1 LMDIM =     13
   total plane-waves  NPLWV = 120960
   max r-space proj   IRMAX =   3262   max aug-charges    IRDMAX=   7688
   dimension x,y,z NGX =    24 NGY =   24 NGZ =  210
   dimension x,y,z NGXF=    32 NGYF=   32 NGZF=  320
   support grid    NGXF=    32 NGYF=   32 NGZF=  320
   ions per type =               6   7
   NGX,Y,Z   is equivalent  to a cutoff of  13.28, 13.28, 11.75 a.u.
   NGXF,Y,Z  is equivalent  to a cutoff of  17.71, 17.71, 17.90 a.u.

 SYSTEM =  Al110                                   
 POSCAR =  MgO13                                   

 Startparameter for this run:
   NWRITE =      2    write-flag & timer
   PREC   = h         normal or accurate (medium, high low for compatibility)
   ISTART =      0    job   : 0-new  1-cont  2-samecut
   ICHARG =      2    charge: 1-file 2-atom 10-const
   ISPIN  =      1    spin polarized calculation?
   LNONCOLLINEAR =      F non collinear calculations
   LSORBIT =      F    spin-orbit coupling
   INIWAV =      1    electr: 0-lowe 1-rand  2-diag
   LASPH  =      F    aspherical Exc in radial PAW
   METAGGA=      F    non-selfconsistent MetaGGA calc.

 Electronic Relaxation 1
   ENCUT  =  450.0 eV  33.07 Ry    5.75 a.u.   5.20  5.20 51.40*2*pi/ulx,y,z
   ENINI  =  450.0     initial cutoff
   ENAUG  =  605.4 eV  augmentation charge cutoff
   NELM   =    100;   NELMIN=  8; NELMDL=  8     # of ELM steps 
   EDIFF  = 0.1E-04   stopping-criterion for ELM
   LREAL  =      T    real-space projection
   NLSPLINE    = F    spline interpolate recip. space projectors
   LCOMPAT=      F    compatible to vasp.4.4
   GGA_COMPAT  = T    GGA compatible to vasp.4.4-vasp.4.6
   LMAXPAW     = -100 max onsite density
   LMAXMIX     =    2 max onsite mixed and CHGCAR
   VOSKOWN=      0    Vosko Wilk Nusair interpolation
   ROPT   =   -0.00040  -0.00040
 Ionic relaxation
   EDIFFG = -.1E-01   stopping-criterion for IOM
   NSW    =    500    number of steps for IOM
   NBLOCK =      1;   KBLOCK =    500    inner block; outer block 
   IBRION =      2    ionic relax: 0-MD 1-quasi-New 2-CG
   NFREE  =      1    steps in history (QN), initial steepest desc. (CG)
   ISIF   =      2    stress and relaxation
   IWAVPR =     11    prediction:  0-non 1-charg 2-wave 3-comb
   ISYM   =      2    0-nonsym 1-usesym 2-fastsym
   LCORR  =      T    Harris-Foulkes like correction to forces

   POTIM  = 0.5000    time-step for ionic-motion
   TEIN   =    0.0    initial temperature
   TEBEG  =    0.0;   TEEND  =   0.0 temperature during run
   SMASS  =  -3.00    Nose mass-parameter (am)
   estimated Nose-frequenzy (Omega)   =  0.10E-29 period in steps =****** mass=  -0.206E-27a.u.
   SCALEE = 1.0000    scale energy and forces
   NPACO  =    256;   APACO  = 16.0  distance and # of slots for P.C.
   PSTRESS=    0.0 pullay stress

  Mass of Ions in am
   POMASS =  24.30 16.00
  Ionic Valenz
   ZVAL   =   2.00  6.00
  Atomic Wigner-Seitz radii
   RWIGS  =  -1.00 -1.00
  virtual crystal weights 
   VCA    =   1.00  1.00
   NELECT =      54.0000    total number of electrons
   NUPDOWN=      -1.0000    fix difference up-down

 DOS related values:
   EMIN   =  10.00;   EMAX   =-10.00  energy-range for DOS
   EFERMI =   0.00
   ISMEAR =     0;   SIGMA  =   0.05  broadening in eV -4-tet -1-fermi 0-gaus

 Electronic relaxation 2 (details)
   IALGO  =     68    algorithm
   LDIAG  =      T    sub-space diagonalisation (order eigenvalues)
   LSUBROT=      F    optimize rotation matrix (better conditioning)
   TURBO    =      0    0=normal 1=particle mesh
   IRESTART =      0    0=no restart 2=restart with 2 vectors
   NREBOOT  =      0    no. of reboots
   NMIN     =      0    reboot dimension
   EREF     =   0.00    reference energy to select bands
   IMIX   =      4    mixing-type and parameters
     AMIX     =   0.40;   BMIX     =  1.00
     AMIX_MAG =   1.60;   BMIX_MAG =  1.00
     AMIN     =   0.10
     WC   =   100.;   INIMIX=   1;  MIXPRE=   1;  MAXMIX= -45

 Intra band minimization:
   WEIMIN = 0.0010     energy-eigenvalue tresh-hold
   EBREAK =  0.71E-07  absolut break condition
   DEPER  =   0.30     relativ break condition  

   TIME   =   0.40     timestep for ELM

  volume/ion in A,a.u.               =      17.87       120.59
  Fermi-wavevector in a.u.,A,eV,Ry     =   1.006579  1.902158 13.785432  1.013201
  Thomas-Fermi vector in A             =   2.139330
 
 Write flags
   LWAVE        =      F    write WAVECAR
   LDOWNSAMPLE  =      F    k-point downsampling of WAVECAR
   LCHARG       =      F    write CHGCAR
   LVTOT        =      F    write LOCPOT, total local potential
   LVHAR        =      F    write LOCPOT, Hartree potential only
   LELF         =      F    write electronic localiz. function (ELF)
   LORBIT       =      0    0 simple, 1 ext, 2 COOP (PROOUT), +10 PAW based schemes


 Dipole corrections
   LMONO  =      F    monopole corrections only (constant potential shift)
   LDIPOL =      F    correct potential (dipole corrections)
   IDIPOL =      0    1-x, 2-y, 3-z, 4-all directions 
   EPSILON=  1.0000000 bulk dielectric constant

 Exchange correlation treatment:
   GGA     =    --    GGA type
   LEXCH   =     8    internal setting for exchange type
   VOSKOWN=      0    Vosko Wilk Nusair interpolation
   LHFCALC =     F    Hartree Fock is set to
   LHFONE  =     F    Hartree Fock one center treatment
   AEXX    =    0.0000 exact exchange contribution

 Linear response parameters
   LEPSILON=     F    determine dielectric tensor
   LRPA    =     F    only Hartree local field effects (RPA)
   LNABLA  =     F    use nabla operator in PAW spheres
   LVEL    =     F    velocity operator in full k-point grid
   LINTERFAST=   F  fast interpolation
   KINTER  =     0    interpolate to denser k-point grid
   CSHIFT  =0.1000    complex shift for real part using Kramers Kronig
   OMEGAMAX=  -1.0    maximum frequency
   DEG_THRESHOLD= 0.2000000E-02 threshold for treating states as degnerate
   RTIME   =   -0.100 relaxation time in fs
  (WPLASMAI=    0.000 imaginary part of plasma frequency in eV, 0.658/RTIME)
   DFIELD  = 0.0000000 0.0000000 0.0000000 field for delta impulse in time
 
 Orbital magnetization related:
   ORBITALMAG=     F  switch on orbital magnetization
   LCHIMAG   =     F  perturbation theory with respect to B field
   DQ        =  0.001000  dq finite difference perturbation B field
   LLRAUG    =     F  two centre corrections for induced B field



--------------------------------------------------------------------------------------------------------


 conjugate gradient relaxation of ions
   using selective dynamics as specified on POSCAR
 charge density and potential will be updated during run
 non-spin polarized calculation
 RMM-DIIS sequential band-by-band and
  variant of blocked Davidson during initial phase
 perform sub-space diagonalisation
    before iterative eigenvector-optimisation
 modified Broyden-mixing scheme, WC =      100.0
 initial mixing is a Kerker type mixing with AMIX =  0.4000 and BMIX =      1.0000
 Hartree-type preconditioning will be used
 using additional bands            8
 real space projection scheme for non local part
 use partial core corrections
 calculate Harris-corrections to forces 
   (improved forces if not selfconsistent)
 use gradient corrections 
 use of overlap-Matrix (Vanderbilt PP)
 Gauss-broadening in eV      SIGMA  =   0.05


--------------------------------------------------------------------------------------------------------


  energy-cutoff  :      450.00
  volume of cell :      232.31
      direct lattice vectors                 reciprocal lattice vectors
     2.124436000 -2.124435000  0.000000000     0.313808828 -0.156904414 -0.156904414
     0.000000000  2.124436000 -2.124436000     0.156904340  0.156904414 -0.313808754
    17.157996000 17.157996000 17.157996000     0.019427282  0.019427291  0.019427291

  length of vectors
     3.004405496  3.004406204 29.718520828     0.384335753  0.384335662  0.033649050


 
 k-points in units of 2pi/SCALE and weight: K-Spacing Value to Generate K-Mesh: 0.02
   0.02941957  0.00000000 -0.02941957       0.031
   0.06864568 -0.01961305 -0.04903262       0.062
   0.10787178 -0.03922610 -0.06864568       0.062
   0.14709788 -0.05883916 -0.08825873       0.062
  -0.12748484  0.07845221  0.04903263       0.062
  -0.08825874  0.05883916  0.02941958       0.062
  -0.04903263  0.03922610  0.00980653       0.062
  -0.00980653  0.01961305 -0.00980652       0.031
   0.08825872  0.00000000 -0.08825872       0.031
   0.12748482 -0.01961305 -0.10787177       0.062
   0.16671093 -0.03922610 -0.12748482       0.062
  -0.10787180  0.09806526  0.00980654       0.062
  -0.06864569  0.07845221 -0.00980651       0.062
  -0.02941959  0.05883916 -0.02941956       0.031
   0.14709787  0.00000000 -0.14709787       0.031
   0.18632397 -0.01961305 -0.16671092       0.062
  -0.08825876  0.11767831 -0.02941955       0.062
  -0.04903265  0.09806526 -0.04903261       0.031
   0.20593701  0.00000000 -0.20593701       0.031
  -0.06864571  0.13729136 -0.06864565       0.031
 
 k-points in reciprocal lattice and weights: K-Spacing Value to Generate K-Mesh: 0.02
   0.06250000  0.06250000  0.00000000       0.031
   0.18750000  0.06250000  0.00000000       0.062
   0.31250000  0.06250000  0.00000000       0.062
   0.43750000  0.06250000  0.00000000       0.062
  -0.43750000  0.06250000 -0.00000000       0.062
  -0.31250000  0.06250000  0.00000000       0.062
  -0.18750000  0.06250000 -0.00000000       0.062
  -0.06250000  0.06250000  0.00000000       0.031
   0.18750000  0.18750000  0.00000000       0.031
   0.31250000  0.18750000  0.00000000       0.062
   0.43750000  0.18750000  0.00000000       0.062
  -0.43750000  0.18750000  0.00000000       0.062
  -0.31250000  0.18750000  0.00000000       0.062
  -0.18750000  0.18750000  0.00000000       0.031
   0.31250000  0.31250000  0.00000000       0.031
   0.43750000  0.31250000  0.00000000       0.062
  -0.43750000  0.31250000 -0.00000000       0.062
  -0.31250000  0.31250000  0.00000000       0.031
   0.43750000  0.43750000  0.00000000       0.031
  -0.43750000  0.43750000  0.00000000       0.031
 
 position of ions in fractional coordinates (direct lattice) 
   0.00000000  0.00000000  0.15746500
   0.33333300  0.66666700  0.24000900
   0.00000000  0.00000000  0.40509700
   0.33333300  0.66666700  0.48764100
   0.66666700  0.33333300  0.07492100
   0.66666700  0.33333300  0.32255300
   0.00000000  0.00000000  0.03364900
   0.00000000  0.00000000  0.28128100
   0.00000000  0.00000000  0.52891300
   0.66666700  0.33333300  0.19873700
   0.66666700  0.33333300  0.44636900
   0.33333300  0.66666700  0.11619300
   0.33333300  0.66666700  0.36382500
 
 position of ions in cartesian coordinates  (Angst):
   2.70178384  2.70178384  2.70178384
   4.82621809  4.82622054  2.70178209
   6.95065271  6.95065271  6.95065271
   9.07508695  9.07508941  6.95065095
   2.70178559  0.57734814  0.57734959
   6.95065446  4.82621700  4.82621846
   0.57734941  0.57734941  0.57734941
   4.82621827  4.82621827  4.82621827
   9.07508714  9.07508714  9.07508714
   4.82622003  2.70178257  2.70178403
   9.07508889  6.95065143  6.95065289
   2.70178365  2.70178611  0.57734765
   6.95065252  6.95065498  4.82621652
 


--------------------------------------------------------------------------------------------------------


 k-point  1 :   0.0625 0.0625 0.0000  plane waves:    5013
 k-point  2 :   0.1875 0.0625 0.0000  plane waves:    5012
 k-point  3 :   0.3125 0.0625 0.0000  plane waves:    5056
 k-point  4 :   0.4375 0.0625 0.0000  plane waves:    5050
 k-point  5 :  -0.4375 0.0625-0.0000  plane waves:    5062
 k-point  6 :  -0.3125 0.0625 0.0000  plane waves:    5046
 k-point  7 :  -0.1875 0.0625-0.0000  plane waves:    5013
 k-point  8 :  -0.0625 0.0625 0.0000  plane waves:    5005
 k-point  9 :   0.1875 0.1875 0.0000  plane waves:    5015
 k-point 10 :   0.3125 0.1875 0.0000  plane waves:    5035
 k-point 11 :   0.4375 0.1875 0.0000  plane waves:    5037
 k-point 12 :  -0.4375 0.1875 0.0000  plane waves:    5043
 k-point 13 :  -0.3125 0.1875 0.0000  plane waves:    5020
 k-point 14 :  -0.1875 0.1875 0.0000  plane waves:    5001
 k-point 15 :   0.3125 0.3125 0.0000  plane waves:    5011
 k-point 16 :   0.4375 0.3125 0.0000  plane waves:    5024
 k-point 17 :  -0.4375 0.3125-0.0000  plane waves:    5047
 k-point 18 :  -0.3125 0.3125 0.0000  plane waves:    5045
 k-point 19 :   0.4375 0.4375 0.0000  plane waves:    5032
 k-point 20 :  -0.4375 0.4375 0.0000  plane waves:    5073

 maximum and minimum number of plane-waves per node :      1286     1232

 maximum number of plane-waves:      5073
 maximum index in each direction: 
   IXMAX=    5   IYMAX=    5   IZMAX=   51
   IXMIN=   -5   IYMIN=   -5   IZMIN=  -51


 real space projection operators:
  total allocation   :       2780.14 KBytes
  max/ min on nodes  :        702.33        689.88


 parallel 3D FFT for wavefunctions:
    minimum data exchange during FFTs selected (reduces bandwidth)
 parallel 3D FFT for charge:
    minimum data exchange during FFTs selected (reduces bandwidth)


 total amount of memory used by VASP MPI-rank0    38552. kBytes
=======================================================================

   base      :      30000. kBytes
   nonlr-proj:       1581. kBytes
   fftplans  :       1620. kBytes
   grid      :       2363. kBytes
   one-center:         32. kBytes
   wavefun   :       2956. kBytes
 
     INWAV:  cpu time    0.0000: real time    0.0000
 Broyden mixing: mesh for mixing (old mesh)
   NGX = 11   NGY = 11   NGZ =103
  (NGX  = 32   NGY  = 32   NGZ  =320)
  gives a total of  12463 points

 initial charge density was supplied:
 charge density of overlapping atoms calculated
 number of electron      54.0000000 magnetization 
 keeping initial charge density in first step


--------------------------------------------------------------------------------------------------------


 Maximum index for non-local projection operator          796
 Maximum index for augmentation-charges          558 (set IRDMAX)


--------------------------------------------------------------------------------------------------------


 First call to EWALD:  gamma=   0.288
 Maximum number of real-space cells 6x 6x 1
 Maximum number of reciprocal cells 2x 2x11

    FEWALD:  cpu time    0.0012: real time    0.0012


--------------------------------------- Iteration      1(   1)  ---------------------------------------


    POTLOK:  cpu time    0.0097: real time    0.0098
    SETDIJ:  cpu time    0.0021: real time    0.0021
     EDDAV:  cpu time    0.6272: real time    0.6285
       DOS:  cpu time    0.0007: real time    0.0007
    --------------------------------------------
      LOOP:  cpu time    0.6397: real time    0.6411

 eigenvalue-minimisations  :  1400
 total energy-change (2. order) : 0.3902687E+03  (-0.2333414E+04)
 number of electron      54.0000000 magnetization 
 augmentation part       54.0000000 magnetization 

 Free energy of the ion-electron system (eV)
  ---------------------------------------------------
  alpha Z        PSCENC =        69.06629783
  Ewald energy   TEWEN  =     14164.70428112
  -Hartree energ DENC   =    -17100.71303452
  -exchange      EXHF   =         0.00000000
  -V(xc)+E(xc)   XCENC  =       -97.25291183
  PAW double counting   =      2817.68650984    -2519.10078531
  entropy T*S    EENTRO =        -0.00418002
  eigenvalues    EBANDS =      -108.71740071
  atomic energy  EATOM  =      3164.59995220
  Solvation  Ediel_sol  =         0.00000000
  ---------------------------------------------------
  free energy    TOTEN  =       390.26872860 eV

  energy without entropy =      390.27290862  energy(sigma->0) =      390.27081861


--------------------------------------------------------------------------------------------------------




--------------------------------------- Iteration      1(   2)  ---------------------------------------


     EDDAV:  cpu time    0.7988: real time    0.7994
       DOS:  cpu time    0.0007: real time    0.0010
    --------------------------------------------
      LOOP:  cpu time    0.7994: real time    0.8005

 eigenvalue-minimisations  :  1870
 total energy-change (2. order) :-0.4262180E+03  (-0.4195319E+03)
 number of electron      54.0000000 magnetization 
 augmentation part       54.0000000 magnetization 

 Free energy of the ion-electron system (eV)
  ---------------------------------------------------
  alpha Z        PSCENC =        69.06629783
  Ewald energy   TEWEN  =     14164.70428112
  -Hartree energ DENC   =    -17100.71303452
  -exchange      EXHF   =         0.00000000
  -V(xc)+E(xc)   XCENC  =       -97.25291183
  PAW double counting   =      2817.68650984    -2519.10078531
  entropy T*S    EENTRO =        -0.00330150
  eigenvalues    EBANDS =      -534.93627599
  atomic energy  EATOM  =      3164.59995220
  Solvation  Ediel_sol  =         0.00000000
  ---------------------------------------------------
  free energy    TOTEN  =       -35.94926815 eV

  energy without entropy =      -35.94596665  energy(sigma->0) =      -35.94761740


--------------------------------------------------------------------------------------------------------




--------------------------------------- Iteration      1(   3)  ---------------------------------------


     EDDAV:  cpu time    0.6973: real time    0.6980
       DOS:  cpu time    0.0006: real time    0.0006
    --------------------------------------------
      LOOP:  cpu time    0.6979: real time    0.6986

 eigenvalue-minimisations  :  1595
 total energy-change (2. order) :-0.4389129E+02  (-0.4331122E+02)
 number of electron      54.0000000 magnetization 
 augmentation part       54.0000000 magnetization 

 Free energy of the ion-electron system (eV)
  ---------------------------------------------------
  alpha Z        PSCENC =        69.06629783
  Ewald energy   TEWEN  =     14164.70428112
  -Hartree energ DENC   =    -17100.71303452
  -exchange      EXHF   =         0.00000000
  -V(xc)+E(xc)   XCENC  =       -97.25291183
  PAW double counting   =      2817.68650984    -2519.10078531
  entropy T*S    EENTRO =        -0.00730470
  eigenvalues    EBANDS =      -578.82356206
  atomic energy  EATOM  =      3164.59995220
  Solvation  Ediel_sol  =         0.00000000
  ---------------------------------------------------
  free energy    TOTEN  =       -79.84055743 eV

  energy without entropy =      -79.83325273  energy(sigma->0) =      -79.83690508


--------------------------------------------------------------------------------------------------------




--------------------------------------- Iteration      1(   4)  ---------------------------------------


     EDDAV:  cpu time    0.8292: real time    0.8304
       DOS:  cpu time    0.0007: real time    0.0010
    --------------------------------------------
      LOOP:  cpu time    0.8299: real time    0.8315

 eigenvalue-minimisations  :  1925
 total energy-change (2. order) :-0.9458887E+00  (-0.9437881E+00)
 number of electron      54.0000000 magnetization 
 augmentation part       54.0000000 magnetization 

 Free energy of the ion-electron system (eV)
  ---------------------------------------------------
  alpha Z        PSCENC =        69.06629783
  Ewald energy   TEWEN  =     14164.70428112
  -Hartree energ DENC   =    -17100.71303452
  -exchange      EXHF   =         0.00000000
  -V(xc)+E(xc)   XCENC  =       -97.25291183
  PAW double counting   =      2817.68650984    -2519.10078531
  entropy T*S    EENTRO =        -0.00763629
  eigenvalues    EBANDS =      -579.76911913
  atomic energy  EATOM  =      3164.59995220
  Solvation  Ediel_sol  =         0.00000000
  ---------------------------------------------------
  free energy    TOTEN  =       -80.78644609 eV

  energy without entropy =      -80.77880980  energy(sigma->0) =      -80.78262794


--------------------------------------------------------------------------------------------------------




--------------------------------------- Iteration      1(   5)  ---------------------------------------


     EDDAV:  cpu time    0.7515: real time    0.7523
       DOS:  cpu time    0.0006: real time    0.0006
    --------------------------------------------
      LOOP:  cpu time    0.7521: real time    0.7530

 eigenvalue-minimisations  :  1775
 total energy-change (2. order) :-0.1381580E-01  (-0.1381172E-01)
 number of electron      54.0000000 magnetization 
 augmentation part       54.0000000 magnetization 

 Free energy of the ion-electron system (eV)
  ---------------------------------------------------
  alpha Z        PSCENC =        69.06629783
  Ewald energy   TEWEN  =     14164.70428112
  -Hartree energ DENC   =    -17100.71303452
  -exchange      EXHF   =         0.00000000
  -V(xc)+E(xc)   XCENC  =       -97.25291183
  PAW double counting   =      2817.68650984    -2519.10078531
  entropy T*S    EENTRO =        -0.00763928
  eigenvalues    EBANDS =      -579.78293193
  atomic energy  EATOM  =      3164.59995220
  Solvation  Ediel_sol  =         0.00000000
  ---------------------------------------------------
  free energy    TOTEN  =       -80.80026188 eV

  energy without entropy =      -80.79262260  energy(sigma->0) =      -80.79644224


--------------------------------------------------------------------------------------------------------




--------------------------------------- Iteration      1(   6)  ---------------------------------------


     EDDAV:  cpu time    0.7786: real time    0.7792
       DOS:  cpu time    0.0006: real time    0.0006
    --------------------------------------------
      LOOP:  cpu time    0.7792: real time    0.7798

 eigenvalue-minimisations  :  1875
 total energy-change (2. order) :-0.3763640E-03  (-0.3763203E-03)
 number of electron      54.0000000 magnetization 
 augmentation part       54.0000000 magnetization 

 Free energy of the ion-electron system (eV)
  ---------------------------------------------------
  alpha Z        PSCENC =        69.06629783
  Ewald energy   TEWEN  =     14164.70428112
  -Hartree energ DENC   =    -17100.71303452
  -exchange      EXHF   =         0.00000000
  -V(xc)+E(xc)   XCENC  =       -97.25291183
  PAW double counting   =      2817.68650984    -2519.10078531
  entropy T*S    EENTRO =        -0.00763929
  eigenvalues    EBANDS =      -579.78330829
  atomic energy  EATOM  =      3164.59995220
  Solvation  Ediel_sol  =         0.00000000
  ---------------------------------------------------
  free energy    TOTEN  =       -80.80063825 eV

  energy without entropy =      -80.79299895  energy(sigma->0) =      -80.79681860


--------------------------------------------------------------------------------------------------------




--------------------------------------- Iteration      1(   7)  ---------------------------------------


     EDDAV:  cpu time    0.7534: real time    0.7540
       DOS:  cpu time    0.0006: real time    0.0006
    --------------------------------------------
      LOOP:  cpu time    0.7540: real time    0.7546

 eigenvalue-minimisations  :  1755
 total energy-change (2. order) :-0.1278441E-04  (-0.1278391E-04)
 number of electron      54.0000000 magnetization 
 augmentation part       54.0000000 magnetization 

 Free energy of the ion-electron system (eV)
  ---------------------------------------------------
  alpha Z        PSCENC =        69.06629783
  Ewald energy   TEWEN  =     14164.70428112
  -Hartree energ DENC   =    -17100.71303452
  -exchange      EXHF   =         0.00000000
  -V(xc)+E(xc)   XCENC  =       -97.25291183
  PAW double counting   =      2817.68650984    -2519.10078531
  entropy T*S    EENTRO =        -0.00763929
  eigenvalues    EBANDS =      -579.78332107
  atomic energy  EATOM  =      3164.59995220
  Solvation  Ediel_sol  =         0.00000000
  ---------------------------------------------------
  free energy    TOTEN  =       -80.80065103 eV

  energy without entropy =      -80.79301174  energy(sigma->0) =      -80.79683138


--------------------------------------------------------------------------------------------------------




--------------------------------------- Iteration      1(   8)  ---------------------------------------


     EDDAV:  cpu time    0.7426: real time    0.7432
       DOS:  cpu time    0.0007: real time    0.0007
    CHARGE:  cpu time    0.0465: real time    0.0466
    MIXING:  cpu time    0.0010: real time    0.0009
    --------------------------------------------
      LOOP:  cpu time    0.7908: real time    0.7914

 eigenvalue-minimisations  :  1415
 total energy-change (2. order) :-0.4076651E-06  (-0.4073809E-06)
 number of electron      53.9999976 magnetization 
 augmentation part        5.2691323 magnetization 

 Broyden mixing:
  rms(total) = 0.17014E+01    rms(broyden)= 0.17001E+01
  rms(prec ) = 0.17785E+01
  weight for this iteration     100.00

 Free energy of the ion-electron system (eV)
  ---------------------------------------------------
  alpha Z        PSCENC =        69.06629783
  Ewald energy   TEWEN  =     14164.70428112
  -Hartree energ DENC   =    -17100.71303452
  -exchange      EXHF   =         0.00000000
  -V(xc)+E(xc)   XCENC  =       -97.25291183
  PAW double counting   =      2817.68650984    -2519.10078531
  entropy T*S    EENTRO =        -0.00763929
  eigenvalues    EBANDS =      -579.78332148
  atomic energy  EATOM  =      3164.59995220
  Solvation  Ediel_sol  =         0.00000000
  ---------------------------------------------------
  free energy    TOTEN  =       -80.80065144 eV

  energy without entropy =      -80.79301215  energy(sigma->0) =      -80.79683179


--------------------------------------------------------------------------------------------------------




--------------------------------------- Iteration      1(   9)  ---------------------------------------


    POTLOK:  cpu time    0.0075: real time    0.0077
    SETDIJ:  cpu time    0.0024: real time    0.0024
    EDDIAG:  cpu time    0.1472: real time    0.1473
  RMM-DIIS:  cpu time    0.4424: real time    0.4428
    ORTHCH:  cpu time    0.0150: real time    0.0150
       DOS:  cpu time    0.0007: real time    0.0010
    CHARGE:  cpu time    0.0405: real time    0.0405
    MIXING:  cpu time    0.0007: real time    0.0007
    --------------------------------------------
      LOOP:  cpu time    0.6564: real time    0.6573

 eigenvalue-minimisations  :  1400
 total energy-change (2. order) : 0.8278373E+01  (-0.3922838E+01)
 number of electron      53.9999968 magnetization 
 augmentation part        4.4956246 magnetization 

 Broyden mixing:
  rms(total) = 0.64649E+00    rms(broyden)= 0.64506E+00
  rms(prec ) = 0.68592E+00
  weight for this iteration     100.00

 eigenvalues of (default mixing * dielectric matrix)
  average eigenvalue GAMMA=   0.8172
  0.8172

 Free energy of the ion-electron system (eV)
  ---------------------------------------------------
  alpha Z        PSCENC =        69.06629783
  Ewald energy   TEWEN  =     14164.70428112
  -Hartree energ DENC   =    -17210.92017966
  -exchange      EXHF   =         0.00000000
  -V(xc)+E(xc)   XCENC  =       -89.54496955
  PAW double counting   =      3245.98253747    -2949.38014259
  entropy T*S    EENTRO =        -0.01804389
  eigenvalues    EBANDS =      -467.01201139
  atomic energy  EATOM  =      3164.59995220
  Solvation  Ediel_sol  =         0.00000000
  ---------------------------------------------------
  free energy    TOTEN  =       -72.52227847 eV

  energy without entropy =      -72.50423458  energy(sigma->0) =      -72.51325652


--------------------------------------------------------------------------------------------------------




--------------------------------------- Iteration      1(  10)  ---------------------------------------


    POTLOK:  cpu time    0.0071: real time    0.0077
    SETDIJ:  cpu time    0.0023: real time    0.0023
    EDDIAG:  cpu time    0.1327: real time    0.1328
  RMM-DIIS:  cpu time    0.4511: real time    0.4515
    ORTHCH:  cpu time    0.0148: real time    0.0148
       DOS:  cpu time    0.0006: real time    0.0006
    CHARGE:  cpu time    0.0395: real time    0.0395
    MIXING:  cpu time    0.0006: real time    0.0005
    --------------------------------------------
      LOOP:  cpu time    0.6486: real time    0.6497

 eigenvalue-minimisations  :  1400
 total energy-change (2. order) :-0.1190693E+00  (-0.1879164E+00)
 number of electron      53.9999979 magnetization 
 augmentation part        4.4489528 magnetization 

 Broyden mixing:
  rms(total) = 0.46698E+00    rms(broyden)= 0.46637E+00
  rms(prec ) = 0.48393E+00
  weight for this iteration     100.00

 eigenvalues of (default mixing * dielectric matrix)
  average eigenvalue GAMMA=   0.7109
  0.7928  0.6289

 Free energy of the ion-electron system (eV)
  ---------------------------------------------------
  alpha Z        PSCENC =        69.06629783
  Ewald energy   TEWEN  =     14164.70428112
  -Hartree energ DENC   =    -17189.52976002
  -exchange      EXHF   =         0.00000000
  -V(xc)+E(xc)   XCENC  =       -89.03820801
  PAW double counting   =      3379.68859937    -3082.95668692
  entropy T*S    EENTRO =        -0.00643661
  eigenvalues    EBANDS =      -489.16938672
  atomic energy  EATOM  =      3164.59995220
  Solvation  Ediel_sol  =         0.00000000
  ---------------------------------------------------
  free energy    TOTEN  =       -72.64134775 eV

  energy without entropy =      -72.63491114  energy(sigma->0) =      -72.63812944


--------------------------------------------------------------------------------------------------------




--------------------------------------- Iteration      1(  11)  ---------------------------------------


    POTLOK:  cpu time    0.0070: real time    0.0071
    SETDIJ:  cpu time    0.0017: real time    0.0017
    EDDIAG:  cpu time    0.1324: real time    0.1325
  RMM-DIIS:  cpu time    0.4501: real time    0.4504
    ORTHCH:  cpu time    0.0155: real time    0.0155
       DOS:  cpu time    0.0007: real time    0.0007
    CHARGE:  cpu time    0.0396: real time    0.0397
    MIXING:  cpu time    0.0005: real time    0.0005
    --------------------------------------------
      LOOP:  cpu time    0.6475: real time    0.6479

 eigenvalue-minimisations  :  1400
 total energy-change (2. order) : 0.2870872E+00  (-0.2903220E-01)
 number of electron      53.9999978 magnetization 
 augmentation part        4.4578291 magnetization 

 Broyden mixing:
  rms(total) = 0.31862E+00    rms(broyden)= 0.31856E+00
  rms(prec ) = 0.34133E+00
  weight for this iteration     100.00

 eigenvalues of (default mixing * dielectric matrix)
  average eigenvalue GAMMA=   1.0493
  1.2422  1.2422  0.6634

 Free energy of the ion-electron system (eV)
  ---------------------------------------------------
  alpha Z        PSCENC =        69.06629783
  Ewald energy   TEWEN  =     14164.70428112
  -Hartree energ DENC   =    -17196.64854042
  -exchange      EXHF   =         0.00000000
  -V(xc)+E(xc)   XCENC  =       -88.90365213
  PAW double counting   =      3444.64987072    -3147.82113205
  entropy T*S    EENTRO =        -0.00844868
  eigenvalues    EBANDS =      -481.99288916
  atomic energy  EATOM  =      3164.59995220
  Solvation  Ediel_sol  =         0.00000000
  ---------------------------------------------------
  free energy    TOTEN  =       -72.35426057 eV

  energy without entropy =      -72.34581189  energy(sigma->0) =      -72.35003623


--------------------------------------------------------------------------------------------------------




--------------------------------------- Iteration      1(  12)  ---------------------------------------


    POTLOK:  cpu time    0.0068: real time    0.0068
    SETDIJ:  cpu time    0.0016: real time    0.0016
    EDDIAG:  cpu time    0.1332: real time    0.1333
  RMM-DIIS:  cpu time    0.4559: real time    0.4563
    ORTHCH:  cpu time    0.0149: real time    0.0149
       DOS:  cpu time    0.0007: real time    0.0007
    CHARGE:  cpu time    0.0395: real time    0.0395
    MIXING:  cpu time    0.0005: real time    0.0005
    --------------------------------------------
      LOOP:  cpu time    0.6530: real time    0.6535

 eigenvalue-minimisations  :  1400
 total energy-change (2. order) :-0.2755526E+01  (-0.6756937E-01)
 number of electron      53.9999965 magnetization 
 augmentation part        4.4950882 magnetization 

 Broyden mixing:
  rms(total) = 0.10151E+01    rms(broyden)= 0.10139E+01
  rms(prec ) = 0.13703E+01
  weight for this iteration     100.00

 eigenvalues of (default mixing * dielectric matrix)
  average eigenvalue GAMMA=   1.0230
  2.3408  1.0014  0.6297  0.1199

 Free energy of the ion-electron system (eV)
  ---------------------------------------------------
  alpha Z        PSCENC =        69.06629783
  Ewald energy   TEWEN  =     14164.70428112
  -Hartree energ DENC   =    -17206.64344949
  -exchange      EXHF   =         0.00000000
  -V(xc)+E(xc)   XCENC  =       -88.64430218
  PAW double counting   =      3525.74617631    -3228.82522558
  entropy T*S    EENTRO =        -0.01814334
  eigenvalues    EBANDS =      -475.09537382
  atomic energy  EATOM  =      3164.59995220
  Solvation  Ediel_sol  =         0.00000000
  ---------------------------------------------------
  free energy    TOTEN  =       -75.10978695 eV

  energy without entropy =      -75.09164361  energy(sigma->0) =      -75.10071528


--------------------------------------------------------------------------------------------------------




--------------------------------------- Iteration      1(  13)  ---------------------------------------


    POTLOK:  cpu time    0.0067: real time    0.0068
    SETDIJ:  cpu time    0.0017: real time    0.0017
    EDDIAG:  cpu time    0.1306: real time    0.1307
  RMM-DIIS:  cpu time    0.4546: real time    0.4550
    ORTHCH:  cpu time    0.0161: real time    0.0161
       DOS:  cpu time    0.0007: real time    0.0007
    CHARGE:  cpu time    0.0421: real time    0.0421
    MIXING:  cpu time    0.0006: real time    0.0006
    --------------------------------------------
      LOOP:  cpu time    0.6532: real time    0.6537

 eigenvalue-minimisations  :  1400
 total energy-change (2. order) : 0.2168988E+01  (-0.3874868E-01)
 number of electron      53.9999959 magnetization 
 augmentation part        4.5027288 magnetization 

 Broyden mixing:
  rms(total) = 0.92211E+00    rms(broyden)= 0.92136E+00
  rms(prec ) = 0.12413E+01
  weight for this iteration     100.00

 eigenvalues of (default mixing * dielectric matrix)
  average eigenvalue GAMMA=   0.8297
  2.3288  1.0048  0.6075  0.1037  0.1037

 Free energy of the ion-electron system (eV)
  ---------------------------------------------------
  alpha Z        PSCENC =        69.06629783
  Ewald energy   TEWEN  =     14164.70428112
  -Hartree energ DENC   =    -17217.36182730
  -exchange      EXHF   =         0.00000000
  -V(xc)+E(xc)   XCENC  =       -88.32300528
  PAW double counting   =      3610.66577969    -3313.66337166
  entropy T*S    EENTRO =        -0.01813922
  eigenvalues    EBANDS =      -462.61076655
  atomic energy  EATOM  =      3164.59995220
  Solvation  Ediel_sol  =         0.00000000
  ---------------------------------------------------
  free energy    TOTEN  =       -72.94079918 eV

  energy without entropy =      -72.92265995  energy(sigma->0) =      -72.93172957


--------------------------------------------------------------------------------------------------------




--------------------------------------- Iteration      1(  14)  ---------------------------------------


    POTLOK:  cpu time    0.0067: real time    0.0067
    SETDIJ:  cpu time    0.0016: real time    0.0016
    EDDIAG:  cpu time    0.1305: real time    0.1306
  RMM-DIIS:  cpu time    0.4481: real time    0.4484
    ORTHCH:  cpu time    0.0148: real time    0.0148
       DOS:  cpu time    0.0006: real time    0.0006
    CHARGE:  cpu time    0.0413: real time    0.0413
    MIXING:  cpu time    0.0006: real time    0.0006
    --------------------------------------------
      LOOP:  cpu time    0.6443: real time    0.6447

 eigenvalue-minimisations  :  1400
 total energy-change (2. order) : 0.5017487E+00  (-0.3632896E-02)
 number of electron      53.9999964 magnetization 
 augmentation part        4.4949028 magnetization 

 Broyden mixing:
  rms(total) = 0.56474E+00    rms(broyden)= 0.56243E+00
  rms(prec ) = 0.63891E+00
  weight for this iteration     100.00

 eigenvalues of (default mixing * dielectric matrix)
  average eigenvalue GAMMA=   0.7437
  2.3708  1.0106  0.4224  0.4224  0.1180  0.1180

 Free energy of the ion-electron system (eV)
  ---------------------------------------------------
  alpha Z        PSCENC =        69.06629783
  Ewald energy   TEWEN  =     14164.70428112
  -Hartree energ DENC   =    -17213.93865236
  -exchange      EXHF   =         0.00000000
  -V(xc)+E(xc)   XCENC  =       -88.30342498
  PAW double counting   =      3612.30727367    -3315.30163530
  entropy T*S    EENTRO =        -0.01951953
  eigenvalues    EBANDS =      -465.55362309
  atomic energy  EATOM  =      3164.59995220
  Solvation  Ediel_sol  =         0.00000000
  ---------------------------------------------------
  free energy    TOTEN  =       -72.43905044 eV

  energy without entropy =      -72.41953091  energy(sigma->0) =      -72.42929067


--------------------------------------------------------------------------------------------------------




--------------------------------------- Iteration      1(  15)  ---------------------------------------


    POTLOK:  cpu time    0.0068: real time    0.0069
    SETDIJ:  cpu time    0.0017: real time    0.0016
    EDDIAG:  cpu time    0.1307: real time    0.1308
  RMM-DIIS:  cpu time    0.5028: real time    0.5032
    ORTHCH:  cpu time    0.0164: real time    0.0164
       DOS:  cpu time    0.0007: real time    0.0007
    CHARGE:  cpu time    0.0449: real time    0.0450
    MIXING:  cpu time    0.0007: real time    0.0007
    --------------------------------------------
      LOOP:  cpu time    0.7048: real time    0.7053

 eigenvalue-minimisations  :  1400
 total energy-change (2. order) : 0.1852439E+00  (-0.2166839E-01)
 number of electron      53.9999974 magnetization 
 augmentation part        4.4855326 magnetization 

 Broyden mixing:
  rms(total) = 0.93771E-01    rms(broyden)= 0.85402E-01
  rms(prec ) = 0.91474E-01
  weight for this iteration     100.00

 eigenvalues of (default mixing * dielectric matrix)
  average eigenvalue GAMMA=   0.7454
  2.4563  0.9686  0.6367  0.4689  0.4689  0.1090  0.1090

 Free energy of the ion-electron system (eV)
  ---------------------------------------------------
  alpha Z        PSCENC =        69.06629783
  Ewald energy   TEWEN  =     14164.70428112
  -Hartree energ DENC   =    -17205.03880119
  -exchange      EXHF   =         0.00000000
  -V(xc)+E(xc)   XCENC  =       -88.23412948
  PAW double counting   =      3620.96391938    -3323.95257306
  entropy T*S    EENTRO =        -0.01983468
  eigenvalues    EBANDS =      -474.34291867
  atomic energy  EATOM  =      3164.59995220
  Solvation  Ediel_sol  =         0.00000000
  ---------------------------------------------------
  free energy    TOTEN  =       -72.25380654 eV

  energy without entropy =      -72.23397186  energy(sigma->0) =      -72.24388920


--------------------------------------------------------------------------------------------------------




--------------------------------------- Iteration      1(  16)  ---------------------------------------


    POTLOK:  cpu time    0.0071: real time    0.0071
    SETDIJ:  cpu time    0.0016: real time    0.0016
    EDDIAG:  cpu time    0.1471: real time    0.1472
  RMM-DIIS:  cpu time    0.7697: real time    0.7708
    ORTHCH:  cpu time    0.0490: real time    0.0490
       DOS:  cpu time    0.0008: real time    0.0016
    CHARGE:  cpu time    0.0807: real time    0.0825
    MIXING:  cpu time    0.0015: real time    0.0016
    --------------------------------------------
      LOOP:  cpu time    1.0575: real time    1.0613

 eigenvalue-minimisations  :  1400
 total energy-change (2. order) :-0.9515139E-01  (-0.1070500E-02)
 number of electron      53.9999970 magnetization 
 augmentation part        4.4869654 magnetization 

 Broyden mixing:
  rms(total) = 0.47543E+00    rms(broyden)= 0.47503E+00
  rms(prec ) = 0.67544E+00
  weight for this iteration     100.00

 eigenvalues of (default mixing * dielectric matrix)
  average eigenvalue GAMMA=   0.6659
  2.4881  0.9853  0.4872  0.4872  0.4851  0.1782  0.1079  0.1079

 Free energy of the ion-electron system (eV)
  ---------------------------------------------------
  alpha Z        PSCENC =        69.06629783
  Ewald energy   TEWEN  =     14164.70428112
  -Hartree energ DENC   =    -17207.85312237
  -exchange      EXHF   =         0.00000000
  -V(xc)+E(xc)   XCENC  =       -88.13670722
  PAW double counting   =      3625.69502133    -3328.70028829
  entropy T*S    EENTRO =        -0.02632346
  eigenvalues    EBANDS =      -471.69806907
  atomic energy  EATOM  =      3164.59995220
  Solvation  Ediel_sol  =         0.00000000
  ---------------------------------------------------
  free energy    TOTEN  =       -72.34895793 eV

  energy without entropy =      -72.32263447  energy(sigma->0) =      -72.33579620


--------------------------------------------------------------------------------------------------------




--------------------------------------- Iteration      1(  17)  ---------------------------------------


    POTLOK:  cpu time    0.0186: real time    0.0208
    SETDIJ:  cpu time    0.0034: real time    0.0036
    EDDIAG:  cpu time    0.2729: real time    0.2733
  RMM-DIIS:  cpu time    0.6047: real time    0.6093
    ORTHCH:  cpu time    0.0161: real time    0.0161
       DOS:  cpu time    0.0007: real time    0.0007
    CHARGE:  cpu time    0.0478: real time    0.0479
    MIXING:  cpu time    0.0008: real time    0.0008
    --------------------------------------------
      LOOP:  cpu time    0.9651: real time    0.9725

 eigenvalue-minimisations  :  1403
 total energy-change (2. order) :-0.1801352E+00  (-0.1319756E-02)
 number of electron      53.9999967 magnetization 
 augmentation part        4.4985485 magnetization 

 Broyden mixing:
  rms(total) = 0.85867E+00    rms(broyden)= 0.85828E+00
  rms(prec ) = 0.12010E+01
  weight for this iteration     100.00

 eigenvalues of (default mixing * dielectric matrix)
  average eigenvalue GAMMA=   0.7201
  2.4938  1.0105  0.8294  0.8294  0.4887  0.4887  0.1318  0.1044  0.1044

 Free energy of the ion-electron system (eV)
  ---------------------------------------------------
  alpha Z        PSCENC =        69.06629783
  Ewald energy   TEWEN  =     14164.70428112
  -Hartree energ DENC   =    -17204.84544522
  -exchange      EXHF   =         0.00000000
  -V(xc)+E(xc)   XCENC  =       -88.15420393
  PAW double counting   =      3629.17552796    -3332.16597093
  entropy T*S    EENTRO =        -0.02411050
  eigenvalues    EBANDS =      -474.88542167
  atomic energy  EATOM  =      3164.59995220
  Solvation  Ediel_sol  =         0.00000000
  ---------------------------------------------------
  free energy    TOTEN  =       -72.52909313 eV

  energy without entropy =      -72.50498263  energy(sigma->0) =      -72.51703788


--------------------------------------------------------------------------------------------------------




--------------------------------------- Iteration      1(  18)  ---------------------------------------


    POTLOK:  cpu time    0.0086: real time    0.0086
    SETDIJ:  cpu time    0.0019: real time    0.0019
    EDDIAG:  cpu time    0.1670: real time    0.1672
  RMM-DIIS:  cpu time    0.6505: real time    0.6799
    ORTHCH:  cpu time    0.0174: real time    0.0183
       DOS:  cpu time    0.0007: real time    0.0007
    CHARGE:  cpu time    0.0480: real time    0.0497
    MIXING:  cpu time    0.0009: real time    0.0009
    --------------------------------------------
      LOOP:  cpu time    0.8951: real time    0.9273

 eigenvalue-minimisations  :  1400
 total energy-change (2. order) : 0.2499656E+00  (-0.1633604E-02)
 number of electron      53.9999972 magnetization 
 augmentation part        4.4817153 magnetization 

 Broyden mixing:
  rms(total) = 0.31454E+00    rms(broyden)= 0.31322E+00
  rms(prec ) = 0.46161E+00
  weight for this iteration     100.00

 eigenvalues of (default mixing * dielectric matrix)
  average eigenvalue GAMMA=   0.7422
  2.5198  0.9619  0.9619  0.9664  0.6754  0.5016  0.5016  0.1053  0.1053  0.1233

 Free energy of the ion-electron system (eV)
  ---------------------------------------------------
  alpha Z        PSCENC =        69.06629783
  Ewald energy   TEWEN  =     14164.70428112
  -Hartree energ DENC   =    -17210.09427344
  -exchange      EXHF   =         0.00000000
  -V(xc)+E(xc)   XCENC  =       -88.08374477
  PAW double counting   =      3624.82943917    -3327.84363917
  entropy T*S    EENTRO =        -0.02509597
  eigenvalues    EBANDS =      -469.43234455
  atomic energy  EATOM  =      3164.59995220
  Solvation  Ediel_sol  =         0.00000000
  ---------------------------------------------------
  free energy    TOTEN  =       -72.27912757 eV

  energy without entropy =      -72.25403160  energy(sigma->0) =      -72.26657959


--------------------------------------------------------------------------------------------------------




--------------------------------------- Iteration      1(  19)  ---------------------------------------


    POTLOK:  cpu time    0.0077: real time    0.0078
    SETDIJ:  cpu time    0.0018: real time    0.0018
    EDDIAG:  cpu time    0.1699: real time    0.1704
  RMM-DIIS:  cpu time    0.7163: real time    0.7181
    ORTHCH:  cpu time    0.0187: real time    0.0187
       DOS:  cpu time    0.0007: real time    0.0007
    CHARGE:  cpu time    0.0516: real time    0.0517
    MIXING:  cpu time    0.0025: real time    0.0026
    --------------------------------------------
      LOOP:  cpu time    0.9693: real time    0.9717

 eigenvalue-minimisations  :  1400
 total energy-change (2. order) :-0.9330518E-04  (-0.4997476E-03)
 number of electron      53.9999975 magnetization 
 augmentation part        4.4748991 magnetization 

 Broyden mixing:
  rms(total) = 0.10164E+00    rms(broyden)= 0.99545E-01
  rms(prec ) = 0.15230E+00
  weight for this iteration     100.00

 eigenvalues of (default mixing * dielectric matrix)
  average eigenvalue GAMMA=   0.8407
  2.5547  2.0178  0.7802  0.7802  0.8974  0.8974  0.4928  0.4928  0.1053  0.1053
  0.1236

 Free energy of the ion-electron system (eV)
  ---------------------------------------------------
  alpha Z        PSCENC =        69.06629783
  Ewald energy   TEWEN  =     14164.70428112
  -Hartree energ DENC   =    -17210.56884007
  -exchange      EXHF   =         0.00000000
  -V(xc)+E(xc)   XCENC  =       -88.04088013
  PAW double counting   =      3623.74178192    -3326.76691251
  entropy T*S    EENTRO =        -0.01941791
  eigenvalues    EBANDS =      -468.99548332
  atomic energy  EATOM  =      3164.59995220
  Solvation  Ediel_sol  =         0.00000000
  ---------------------------------------------------
  free energy    TOTEN  =       -72.27922087 eV

  energy without entropy =      -72.25980296  energy(sigma->0) =      -72.26951192


--------------------------------------------------------------------------------------------------------




--------------------------------------- Iteration      1(  20)  ---------------------------------------


    POTLOK:  cpu time    0.0090: real time    0.0091
    SETDIJ:  cpu time    0.0043: real time    0.0043
    EDDIAG:  cpu time    0.2115: real time    0.2126
  RMM-DIIS:  cpu time    0.6732: real time    0.6766
    ORTHCH:  cpu time    0.0178: real time    0.0178
       DOS:  cpu time    0.0008: real time    0.0008
    CHARGE:  cpu time    0.0490: real time    0.0491
    MIXING:  cpu time    0.0010: real time    0.0010
    --------------------------------------------
      LOOP:  cpu time    0.9666: real time    0.9713

 eigenvalue-minimisations  :  1400
 total energy-change (2. order) :-0.6512798E-02  (-0.2102772E-03)
 number of electron      53.9999974 magnetization 
 augmentation part        4.4728187 magnetization 

 Broyden mixing:
  rms(total) = 0.12370E+00    rms(broyden)= 0.12324E+00
  rms(prec ) = 0.16366E+00
  weight for this iteration     100.00

 eigenvalues of (default mixing * dielectric matrix)
  average eigenvalue GAMMA=   0.8179
  2.5721  2.1288  0.8588  0.8588  0.9571  0.7707  0.4871  0.4871  0.3600  0.1053
  0.1053  0.1237

 Free energy of the ion-electron system (eV)
  ---------------------------------------------------
  alpha Z        PSCENC =        69.06629783
  Ewald energy   TEWEN  =     14164.70428112
  -Hartree energ DENC   =    -17211.91006990
  -exchange      EXHF   =         0.00000000
  -V(xc)+E(xc)   XCENC  =       -88.01276275
  PAW double counting   =      3620.38816108    -3323.42440739
  entropy T*S    EENTRO =        -0.01786845
  eigenvalues    EBANDS =      -467.67931742
  atomic energy  EATOM  =      3164.59995220
  Solvation  Ediel_sol  =         0.00000000
  ---------------------------------------------------
  free energy    TOTEN  =       -72.28573367 eV

  energy without entropy =      -72.26786523  energy(sigma->0) =      -72.27679945


--------------------------------------------------------------------------------------------------------




--------------------------------------- Iteration      1(  21)  ---------------------------------------


    POTLOK:  cpu time    0.0088: real time    0.0089
    SETDIJ:  cpu time    0.0022: real time    0.0022
    EDDIAG:  cpu time    0.1796: real time    0.1802
  RMM-DIIS:  cpu time    0.6366: real time    0.6684
    ORTHCH:  cpu time    0.0174: real time    0.0174
       DOS:  cpu time    0.0008: real time    0.0008
    CHARGE:  cpu time    0.0489: real time    0.0490
    MIXING:  cpu time    0.0011: real time    0.0011
    --------------------------------------------
      LOOP:  cpu time    0.8952: real time    0.9278

 eigenvalue-minimisations  :  1368
 total energy-change (2. order) :-0.3870213E-02  (-0.4390535E-04)
 number of electron      53.9999974 magnetization 
 augmentation part        4.4722578 magnetization 

 Broyden mixing:
  rms(total) = 0.12676E+00    rms(broyden)= 0.12659E+00
  rms(prec ) = 0.19743E+00
  weight for this iteration     100.00

 eigenvalues of (default mixing * dielectric matrix)
  average eigenvalue GAMMA=   0.8133
  2.5414  1.9631  0.8701  0.8701  0.9240  0.9018  0.9018  0.5001  0.5001  0.2659
  0.1052  0.1052  0.1237

 Free energy of the ion-electron system (eV)
  ---------------------------------------------------
  alpha Z        PSCENC =        69.06629783
  Ewald energy   TEWEN  =     14164.70428112
  -Hartree energ DENC   =    -17212.23663201
  -exchange      EXHF   =         0.00000000
  -V(xc)+E(xc)   XCENC  =       -88.00731153
  PAW double counting   =      3619.81235676    -3322.85090220
  entropy T*S    EENTRO =        -0.01977034
  eigenvalues    EBANDS =      -467.35787571
  atomic energy  EATOM  =      3164.59995220
  Solvation  Ediel_sol  =         0.00000000
  ---------------------------------------------------
  free energy    TOTEN  =       -72.28960389 eV

  energy without entropy =      -72.26983354  energy(sigma->0) =      -72.27971871


--------------------------------------------------------------------------------------------------------




--------------------------------------- Iteration      1(  22)  ---------------------------------------


    POTLOK:  cpu time    0.0085: real time    0.0086
    SETDIJ:  cpu time    0.0020: real time    0.0020
    EDDIAG:  cpu time    0.1691: real time    0.1695
  RMM-DIIS:  cpu time    0.6625: real time    0.6652
    ORTHCH:  cpu time    0.0175: real time    0.0175
       DOS:  cpu time    0.0008: real time    0.0008
    CHARGE:  cpu time    0.0489: real time    0.0490
    MIXING:  cpu time    0.0011: real time    0.0011
    --------------------------------------------
      LOOP:  cpu time    0.9104: real time    0.9138

 eigenvalue-minimisations  :  1371
 total energy-change (2. order) : 0.8356006E-02  (-0.5481712E-04)
 number of electron      53.9999975 magnetization 
 augmentation part        4.4721988 magnetization 

 Broyden mixing:
  rms(total) = 0.49232E-01    rms(broyden)= 0.49006E-01
  rms(prec ) = 0.53808E-01
  weight for this iteration     100.00

 eigenvalues of (default mixing * dielectric matrix)
  average eigenvalue GAMMA=   0.9106
  2.5519  2.1562  1.4618  1.4618  0.9881  0.9881  0.7973  0.7973  0.4954  0.4954
  0.2209  0.1052  0.1052  0.1237

 Free energy of the ion-electron system (eV)
  ---------------------------------------------------
  alpha Z        PSCENC =        69.06629783
  Ewald energy   TEWEN  =     14164.70428112
  -Hartree energ DENC   =    -17212.13671335
  -exchange      EXHF   =         0.00000000
  -V(xc)+E(xc)   XCENC  =       -88.01135099
  PAW double counting   =      3618.85885191    -3321.89674995
  entropy T*S    EENTRO =        -0.01829539
  eigenvalues    EBANDS =      -467.44752126
  atomic energy  EATOM  =      3164.59995220
  Solvation  Ediel_sol  =         0.00000000
  ---------------------------------------------------
  free energy    TOTEN  =       -72.28124788 eV

  energy without entropy =      -72.26295249  energy(sigma->0) =      -72.27210019


--------------------------------------------------------------------------------------------------------




--------------------------------------- Iteration      1(  23)  ---------------------------------------


    POTLOK:  cpu time    0.0085: real time    0.0086
    SETDIJ:  cpu time    0.0019: real time    0.0019
    EDDIAG:  cpu time    0.1706: real time    0.1712
  RMM-DIIS:  cpu time    0.6410: real time    0.6437
    ORTHCH:  cpu time    0.0174: real time    0.0174
       DOS:  cpu time    0.0008: real time    0.0008
    CHARGE:  cpu time    0.0485: real time    0.0486
    MIXING:  cpu time    0.0012: real time    0.0012
    --------------------------------------------
      LOOP:  cpu time    0.8899: real time    0.8933

 eigenvalue-minimisations  :  1310
 total energy-change (2. order) : 0.5691043E-03  (-0.3519259E-04)
 number of electron      53.9999975 magnetization 
 augmentation part        4.4727690 magnetization 

 Broyden mixing:
  rms(total) = 0.75919E-01    rms(broyden)= 0.75858E-01
  rms(prec ) = 0.98189E-01
  weight for this iteration     100.00

 eigenvalues of (default mixing * dielectric matrix)
  average eigenvalue GAMMA=   0.9188
  2.5345  2.0946  1.7836  1.7836  0.9637  0.9637  0.8052  0.8052  0.4953  0.4953
  0.4914  0.2312  0.1052  0.1052  0.1237

 Free energy of the ion-electron system (eV)
  ---------------------------------------------------
  alpha Z        PSCENC =        69.06629783
  Ewald energy   TEWEN  =     14164.70428112
  -Hartree energ DENC   =    -17212.50738941
  -exchange      EXHF   =         0.00000000
  -V(xc)+E(xc)   XCENC  =       -88.01203405
  PAW double counting   =      3618.35290609    -3321.39128060
  entropy T*S    EENTRO =        -0.01878274
  eigenvalues    EBANDS =      -467.07462922
  atomic energy  EATOM  =      3164.59995220
  Solvation  Ediel_sol  =         0.00000000
  ---------------------------------------------------
  free energy    TOTEN  =       -72.28067878 eV

  energy without entropy =      -72.26189604  energy(sigma->0) =      -72.27128741


--------------------------------------------------------------------------------------------------------




--------------------------------------- Iteration      1(  24)  ---------------------------------------


    POTLOK:  cpu time    0.0085: real time    0.0086
    SETDIJ:  cpu time    0.0019: real time    0.0019
    EDDIAG:  cpu time    0.1695: real time    0.1700
  RMM-DIIS:  cpu time    0.6337: real time    0.6481
    ORTHCH:  cpu time    0.0174: real time    0.0305
       DOS:  cpu time    0.0008: real time    0.0008
    CHARGE:  cpu time    0.0481: real time    0.0483
    MIXING:  cpu time    0.0012: real time    0.0012
    --------------------------------------------
      LOOP:  cpu time    0.8812: real time    0.9094

 eigenvalue-minimisations  :  1283
 total energy-change (2. order) : 0.1365394E-02  (-0.2098165E-04)
 number of electron      53.9999975 magnetization 
 augmentation part        4.4728246 magnetization 

 Broyden mixing:
  rms(total) = 0.59467E-01    rms(broyden)= 0.59466E-01
  rms(prec ) = 0.74633E-01
  weight for this iteration     100.00

 eigenvalues of (default mixing * dielectric matrix)
  average eigenvalue GAMMA=   1.1294
  3.3817  3.3817  2.5864  1.6886  1.0157  1.0157  0.9977  0.8703  0.8703  0.7076
  0.4958  0.4958  0.2285  0.1052  0.1052  0.1237

 Free energy of the ion-electron system (eV)
  ---------------------------------------------------
  alpha Z        PSCENC =        69.06629783
  Ewald energy   TEWEN  =     14164.70428112
  -Hartree energ DENC   =    -17212.63568574
  -exchange      EXHF   =         0.00000000
  -V(xc)+E(xc)   XCENC  =       -88.01218364
  PAW double counting   =      3618.21041157    -3321.24896415
  entropy T*S    EENTRO =        -0.01901845
  eigenvalues    EBANDS =      -466.94440412
  atomic energy  EATOM  =      3164.59995220
  Solvation  Ediel_sol  =         0.00000000
  ---------------------------------------------------
  free energy    TOTEN  =       -72.27931338 eV

  energy without entropy =      -72.26029493  energy(sigma->0) =      -72.26980415


--------------------------------------------------------------------------------------------------------




--------------------------------------- Iteration      1(  25)  ---------------------------------------


    POTLOK:  cpu time    0.0086: real time    0.0087
    SETDIJ:  cpu time    0.0020: real time    0.0020
    EDDIAG:  cpu time    0.1696: real time    0.1701
  RMM-DIIS:  cpu time    0.6749: real time    0.6784
    ORTHCH:  cpu time    0.0176: real time    0.0176
       DOS:  cpu time    0.0007: real time    0.0007
    CHARGE:  cpu time    0.0496: real time    0.0497
    MIXING:  cpu time    0.0015: real time    0.0015
    --------------------------------------------
      LOOP:  cpu time    0.9244: real time    0.9287

 eigenvalue-minimisations  :  1400
 total energy-change (2. order) : 0.2841896E-02  (-0.1661198E-03)
 number of electron      53.9999974 magnetization 
 augmentation part        4.4733531 magnetization 

 Broyden mixing:
  rms(total) = 0.68036E-01    rms(broyden)= 0.67997E-01
  rms(prec ) = 0.94636E-01
  weight for this iteration     100.00

 eigenvalues of (default mixing * dielectric matrix)
  average eigenvalue GAMMA=   1.1346
  3.6281  3.6281  2.6155  1.7481  1.0712  1.0712  1.0739  0.8607  0.8607  0.7180
  0.4958  0.4958  0.4579  0.1052  0.1052  0.1237  0.2286

 Free energy of the ion-electron system (eV)
  ---------------------------------------------------
  alpha Z        PSCENC =        69.06629783
  Ewald energy   TEWEN  =     14164.70428112
  -Hartree energ DENC   =    -17213.37162990
  -exchange      EXHF   =         0.00000000
  -V(xc)+E(xc)   XCENC  =       -88.01015816
  PAW double counting   =      3617.60393172    -3320.64381419
  entropy T*S    EENTRO =        -0.02025189
  eigenvalues    EBANDS =      -466.20508023
  atomic energy  EATOM  =      3164.59995220
  Solvation  Ediel_sol  =         0.00000000
  ---------------------------------------------------
  free energy    TOTEN  =       -72.27647149 eV

  energy without entropy =      -72.25621959  energy(sigma->0) =      -72.26634554


--------------------------------------------------------------------------------------------------------




--------------------------------------- Iteration      1(  26)  ---------------------------------------


    POTLOK:  cpu time    0.0085: real time    0.0106
    SETDIJ:  cpu time    0.0031: real time    0.0031
    EDDIAG:  cpu time    0.1704: real time    0.1714
  RMM-DIIS:  cpu time    0.6572: real time    0.6591
    ORTHCH:  cpu time    0.0177: real time    0.0178
       DOS:  cpu time    0.0008: real time    0.0008
    CHARGE:  cpu time    0.0486: real time    0.0487
    MIXING:  cpu time    0.0014: real time    0.0015
    --------------------------------------------
      LOOP:  cpu time    0.9077: real time    0.9129

 eigenvalue-minimisations  :  1325
 total energy-change (2. order) : 0.1163600E-02  (-0.4984570E-04)
 number of electron      53.9999974 magnetization 
 augmentation part        4.4733696 magnetization 

 Broyden mixing:
  rms(total) = 0.37515E-01    rms(broyden)= 0.37505E-01
  rms(prec ) = 0.51396E-01
  weight for this iteration     100.00

 eigenvalues of (default mixing * dielectric matrix)
  average eigenvalue GAMMA=   1.2252
  3.9962  3.9962  2.5285  2.5285  1.1330  1.1330  1.0552  1.0552  0.8389  0.8389
  0.7519  0.6439  0.4958  0.4958  0.1052  0.1052  0.1237  0.2286

 Free energy of the ion-electron system (eV)
  ---------------------------------------------------
  alpha Z        PSCENC =        69.06629783
  Ewald energy   TEWEN  =     14164.70428112
  -Hartree energ DENC   =    -17213.55359794
  -exchange      EXHF   =         0.00000000
  -V(xc)+E(xc)   XCENC  =       -88.00958729
  PAW double counting   =      3617.50175396    -3320.54188341
  entropy T*S    EENTRO =        -0.02064349
  eigenvalues    EBANDS =      -466.02188088
  atomic energy  EATOM  =      3164.59995220
  Solvation  Ediel_sol  =         0.00000000
  ---------------------------------------------------
  free energy    TOTEN  =       -72.27530789 eV

  energy without entropy =      -72.25466440  energy(sigma->0) =      -72.26498614


--------------------------------------------------------------------------------------------------------




--------------------------------------- Iteration      1(  27)  ---------------------------------------


    POTLOK:  cpu time    0.0084: real time    0.0085
    SETDIJ:  cpu time    0.0020: real time    0.0021
    EDDIAG:  cpu time    0.1682: real time    0.1687
  RMM-DIIS:  cpu time    0.6534: real time    0.6567
    ORTHCH:  cpu time    0.0172: real time    0.0172
       DOS:  cpu time    0.0008: real time    0.0008
    CHARGE:  cpu time    0.0495: real time    0.0496
    MIXING:  cpu time    0.0015: real time    0.0015
    --------------------------------------------
      LOOP:  cpu time    0.9009: real time    0.9050

 eigenvalue-minimisations  :  1287
 total energy-change (2. order) : 0.3992271E-03  (-0.3485456E-04)
 number of electron      53.9999974 magnetization 
 augmentation part        4.4736259 magnetization 

[...]
     10      -6.1314      2.00000
     11      -5.5744      2.00000
     12      -5.1166      2.00000
     13      -4.9227      2.00000
     14      -4.8430      2.00000
     15      -4.5355      2.00000
     16      -4.1348      2.00000
     17      -4.1243      2.00000
     18      -3.9770      2.00000
     19      -3.8012      2.00000
     20      -3.7814      2.00000
     21      -3.6458      2.00000
     22      -3.5244      2.00000
     23      -3.5042      2.00000
     24      -3.3575      2.00000
     25      -2.9763      1.88537
     26      -2.8822      0.27892
     27      -2.8279      0.00882
     28      -2.6625      0.00000
     29       3.0534      0.00000
     30       3.7822      0.00000
     31       4.6024      0.00000
     32       5.3260      0.00000
     33       5.7273      0.00000
     34       6.5568      0.00000
     35       6.6363      0.00000

 k-point    15 :       0.3125    0.3125    0.0000
  band No.  band energies     occupation 
      1     -19.0672      2.00000
      2     -19.0290      2.00000
      3     -18.9757      2.00000
      4     -18.9468      2.00000
      5     -18.8412      2.00000
      6     -18.1496      2.00000
      7     -18.0092      2.00000
      8      -6.8223      2.00000
      9      -6.8056      2.00000
     10      -6.5533      2.00000
     11      -6.4891      2.00000
     12      -6.3822      2.00000
     13      -6.1534      2.00000
     14      -6.0881      2.00000
     15      -5.8447      2.00000
     16      -5.7765      2.00000
     17      -5.5720      2.00000
     18      -5.1494      2.00000
     19      -5.0429      2.00000
     20      -4.5338      2.00000
     21      -4.5096      2.00000
     22      -4.3802      2.00000
     23      -4.1537      2.00000
     24      -4.0876      2.00000
     25      -3.7798      2.00000
     26      -3.7294      2.00000
     27      -2.9723      1.85751
     28      -2.9494      1.58650
     29       6.8175      0.00000
     30       6.9088      0.00000
     31       7.1051      0.00000
     32       7.3775      0.00000
     33       7.7457      0.00000
     34       7.9950      0.00000
     35       8.5022      0.00000

 k-point    16 :       0.4375    0.3125    0.0000
  band No.  band energies     occupation 
      1     -19.1507      2.00000
      2     -19.0736      2.00000
      3     -18.9973      2.00000
      4     -18.9581      2.00000
      5     -18.8614      2.00000
      6     -18.1689      2.00000
      7     -18.0325      2.00000
      8      -7.0622      2.00000
      9      -6.8637      2.00000
     10      -6.7619      2.00000
     11      -6.5715      2.00000
     12      -6.3773      2.00000
     13      -6.0528      2.00000
     14      -5.7947      2.00000
     15      -5.5566      2.00000
     16      -5.4526      2.00000
     17      -5.3201      2.00000
     18      -5.1600      2.00000
     19      -5.0614      2.00000
     20      -4.6253      2.00000
     21      -4.4086      2.00000
     22      -4.2363      2.00000
     23      -4.1450      2.00000
     24      -4.0639      2.00000
     25      -3.6578      2.00000
     26      -3.6383      2.00000
     27      -2.9706      1.84331
     28      -2.9561      1.68632
     29       6.3102      0.00000
     30       6.6854      0.00000
     31       6.8662      0.00000
     32       7.2663      0.00000
     33       7.6588      0.00000
     34       8.1002      0.00000
     35       8.2106      0.00000

 k-point    17 :      -0.4375    0.3125   -0.0000
  band No.  band energies     occupation 
      1     -19.4094      2.00000
      2     -19.2809      2.00000
      3     -19.1431      2.00000
      4     -19.0309      2.00000
      5     -18.9395      2.00000
      6     -18.2476      2.00000
      7     -18.1286      2.00000
      8      -7.1905      2.00000
      9      -6.9051      2.00000
     10      -6.8588      2.00000
     11      -6.6447      2.00000
     12      -6.4705      2.00000
     13      -5.9166      2.00000
     14      -5.5270      2.00000
     15      -5.1330      2.00000
     16      -4.8795      2.00000
     17      -4.7400      2.00000
     18      -4.5924      2.00000
     19      -4.5875      2.00000
     20      -4.3296      2.00000
     21      -4.2878      2.00000
     22      -4.0766      2.00000
     23      -3.9979      2.00000
     24      -3.9134      2.00000
     25      -3.2822      2.00000
     26      -3.1522      2.00000
     27      -2.9836      1.92585
     28      -2.9730      1.86221
     29       5.0870      0.00000
     30       5.7213      0.00000
     31       6.2958      0.00000
     32       6.7412      0.00000
     33       6.9218      0.00000
     34       7.2771      0.00000
     35       7.6215      0.00000

 k-point    18 :      -0.3125    0.3125    0.0000
  band No.  band energies     occupation 
      1     -19.6728      2.00000
      2     -19.5105      2.00000
      3     -19.3243      2.00000
      4     -19.1503      2.00000
      5     -19.0246      2.00000
      6     -18.3350      2.00000
      7     -18.2365      2.00000
      8      -6.8891      2.00000
      9      -6.8377      2.00000
     10      -6.5730      2.00000
     11      -6.4284      2.00000
     12      -6.1490      2.00000
     13      -5.9729      2.00000
     14      -5.5044      2.00000
     15      -4.9825      2.00000
     16      -4.5616      2.00000
     17      -4.3948      2.00000
     18      -4.2326      2.00000
     19      -4.1912      2.00000
     20      -4.0508      2.00000
     21      -3.9379      2.00000
     22      -3.8892      2.00000
     23      -3.8132      2.00000
     24      -3.7630      2.00000
     25      -3.0082      1.98692
     26      -2.9994      1.97429
     27      -2.9702      1.84040
     28      -2.8482      0.04093
     29       4.2963      0.00000
     30       4.9441      0.00000
     31       5.6264      0.00000
     32       6.2739      0.00000
     33       6.6288      0.00000
     34       6.9888      0.00000
     35       7.5056      0.00000

 k-point    19 :       0.4375    0.4375    0.0000
  band No.  band energies     occupation 
      1     -19.1845      2.00000
      2     -19.1088      2.00000
      3     -19.0304      2.00000
      4     -18.9869      2.00000
      5     -18.8915      2.00000
      6     -18.1920      2.00000
      7     -18.0568      2.00000
      8      -7.5416      2.00000
      9      -7.1981      2.00000
     10      -7.0595      2.00000
     11      -6.8967      2.00000
     12      -6.7553      2.00000
     13      -5.6755      2.00000
     14      -5.5503      2.00000
     15      -5.1414      2.00000
     16      -5.0243      2.00000
     17      -4.9746      2.00000
     18      -4.7563      2.00000
     19      -4.6070      2.00000
     20      -4.4676      2.00000
     21      -4.3863      2.00000
     22      -4.1743      2.00000
     23      -4.0922      2.00000
     24      -4.0312      2.00000
     25      -3.3583      2.00000
     26      -3.2430      2.00000
     27      -3.0071      1.98571
     28      -2.9876      1.94213
     29       5.2763      0.00000
     30       6.0272      0.00000
     31       6.4608      0.00000
     32       6.7336      0.00000
     33       7.0334      0.00000
     34       7.1900      0.00000
     35       7.5152      0.00000

 k-point    20 :      -0.4375    0.4375    0.0000
  band No.  band energies     occupation 
      1     -19.2960      2.00000
      2     -19.1928      2.00000
      3     -19.0867      2.00000
      4     -19.0135      2.00000
      5     -18.9258      2.00000
      6     -18.2256      2.00000
      7     -18.0971      2.00000
      8      -7.5930      2.00000
      9      -7.2432      2.00000
     10      -7.1356      2.00000
     11      -6.9329      2.00000
     12      -6.7932      2.00000
     13      -5.7577      2.00000
     14      -5.6020      2.00000
     15      -5.1259      2.00000
     16      -4.7138      2.00000
     17      -4.5664      2.00000
     18      -4.4500      2.00000
     19      -4.4020      2.00000
     20      -4.2173      2.00000
     21      -4.1627      2.00000
     22      -4.0528      2.00000
     23      -3.9993      2.00000
     24      -3.9240      2.00000
     25      -3.1169      2.00000
     26      -3.0455      1.99960
     27      -3.0188      1.99455
     28      -2.9748      1.87516
     29       4.7450      0.00000
     30       5.5222      0.00000
     31       6.1003      0.00000
     32       6.2107      0.00000
     33       6.5692      0.00000
     34       6.6978      0.00000
     35       7.3729      0.00000


--------------------------------------------------------------------------------------------------------


 soft charge-density along one line, spin component           1
         0         1         2         3         4         5         6         7         8         9
 total charge-density along one line
 
 pseudopotential strength for first ion, spin component:           1
  3.013   9.694   0.001   0.001   0.001   0.001   0.001   0.001
  9.694  30.986   0.003   0.003   0.003   0.005   0.005   0.005
  0.001   0.003   6.946  -0.000  -0.000  10.384  -0.000  -0.000
  0.001   0.003  -0.000   6.946  -0.000  -0.000  10.384  -0.000
  0.001   0.003  -0.000  -0.000   6.946  -0.000  -0.000  10.384
  0.001   0.005  10.384  -0.000  -0.000  14.607  -0.000  -0.000
  0.001   0.005  -0.000  10.384  -0.000  -0.000  14.607  -0.000
  0.001   0.005  -0.000  -0.000  10.384  -0.000  -0.000  14.607
 -0.000  -0.000   0.002  -0.000   0.002   0.002  -0.000   0.002
 -0.000  -0.000   0.002   0.002  -0.000   0.002   0.002  -0.000
 -0.000  -0.000  -0.001   0.002  -0.001  -0.001   0.002  -0.001
 -0.000  -0.000  -0.000   0.002   0.002  -0.000   0.002   0.002
 -0.000  -0.000  -0.002   0.000   0.002  -0.002   0.000   0.002
 total augmentation occupancy for first ion, spin component:           1
  1.006  -0.046  -0.008  -0.008  -0.008   0.001   0.001   0.001  -0.002  -0.002   0.000  -0.002   0.000
 -0.046   0.002   0.000   0.000   0.000  -0.000  -0.000  -0.000   0.000   0.000  -0.000   0.000  -0.000
 -0.008   0.000   0.116  -0.001  -0.001  -0.012   0.000   0.000   0.001   0.001   0.002  -0.000   0.004
 -0.008   0.000  -0.001   0.116  -0.001   0.000  -0.012   0.000  -0.000   0.001  -0.005   0.001   0.000
 -0.008   0.000  -0.001  -0.001   0.116   0.000   0.000  -0.012   0.001  -0.000   0.002   0.001  -0.004
  0.001  -0.000  -0.012   0.000   0.000   0.001  -0.000  -0.000  -0.000  -0.000  -0.000   0.000  -0.000
  0.001  -0.000   0.000  -0.012   0.000  -0.000   0.001  -0.000   0.000  -0.000   0.001  -0.000  -0.000
  0.001  -0.000   0.000   0.000  -0.012  -0.000  -0.000   0.001  -0.000   0.000  -0.000  -0.000   0.000
 -0.002   0.000   0.001  -0.000   0.001  -0.000   0.000  -0.000   0.013  -0.000   0.000  -0.000   0.000
 -0.002   0.000   0.001   0.001  -0.000  -0.000  -0.000   0.000  -0.000   0.013  -0.000  -0.000   0.000
  0.000  -0.000   0.002  -0.005   0.002  -0.000   0.001  -0.000   0.000  -0.000   0.050  -0.000  -0.000
 -0.002   0.000  -0.000   0.001   0.001   0.000  -0.000  -0.000  -0.000  -0.000  -0.000   0.013  -0.000
  0.000  -0.000   0.004   0.000  -0.004  -0.000  -0.000   0.000   0.000   0.000  -0.000  -0.000   0.050


------------------------ aborting loop because EDIFF is reached ----------------------------------------


    CHARGE:  cpu time    0.0775: real time    0.0776
    FORLOC:  cpu time    0.0013: real time    0.0013
    FORNL :  cpu time    0.2372: real time    0.2377
    STRESS:  cpu time    0.6407: real time    0.6419
    FORCOR:  cpu time    0.0092: real time    0.0092
    FORHAR:  cpu time    0.0032: real time    0.0032
    MIXING:  cpu time    0.0007: real time    0.0007
    OFIELD:  cpu time    0.0000: real time    0.0000

  FORCE on cell =-STRESS in cart. coord.  units (eV):
  Direction    XX          YY          ZZ          XY          YZ          ZX
  --------------------------------------------------------------------------------------
  Alpha Z    69.06630    69.06630    69.06630
  Ewald    4842.51079  4842.50047  4842.50014-11296.08096-11296.08627-11296.08089
  Hartree  5861.15015  5861.13965  5861.13973-11066.31365-11066.31888-11066.31366
  E(xc)    -245.95292  -245.95294  -245.95292     0.03814     0.03813     0.03814
  Local  -11417.06071-11417.03925-11417.03964 22359.03558 22359.04631 22359.03604
  n-local  -129.13614  -132.38732  -135.44039    -1.11833    -0.69363    -1.05252
  augment    46.56347    46.56346    46.56347     0.24883     0.24881     0.24884
  Kinetic   968.27966   975.98484   982.94197     9.62344    -3.51300     3.58437
  Fock        0.00000     0.00000     0.00000     0.00000     0.00000     0.00000
  -------------------------------------------------------------------------------------
  Total      -0.30851    -0.30851    -0.30851    -0.79505    -0.79505    -0.79505
  in kB      -2.12769    -2.12769    -2.12769    -5.48312    -5.48312    -5.48312
  external pressure =       -2.13 kB  Pullay stress =        0.00 kB


 VOLUME and BASIS-vectors are now :
 -----------------------------------------------------------------------------
  energy-cutoff  :      450.00
  volume of cell :      232.31
      direct lattice vectors                 reciprocal lattice vectors
     2.124436000 -2.124435000  0.000000000     0.313808828 -0.156904414 -0.156904414
     0.000000000  2.124436000 -2.124436000     0.156904340  0.156904414 -0.313808754
    17.157996000 17.157996000 17.157996000     0.019427282  0.019427291  0.019427291

  length of vectors
     3.004405496  3.004406204 29.718520828     0.384335753  0.384335662  0.033649050


 FORCES acting on ions
    electron-ion (+dipol)            ewald-force                    non-local-force                 convergence-correction
 -----------------------------------------------------------------------------------------------
   0.142E+03 0.142E+03 0.142E+03   -.142E+03 -.142E+03 -.142E+03   0.286E+00 0.286E+00 0.286E+00   -.485E-01 -.485E-01 -.485E-01
   0.462E+02 0.462E+02 0.462E+02   -.462E+02 -.462E+02 -.462E+02   0.476E-01 0.476E-01 0.476E-01   -.544E-01 -.544E-01 -.544E-01
   -.143E+03 -.143E+03 -.143E+03   0.143E+03 0.143E+03 0.143E+03   -.153E-01 -.153E-01 -.153E-01   -.513E-01 -.513E-01 -.513E-01
   -.237E+03 -.237E+03 -.237E+03   0.238E+03 0.238E+03 0.238E+03   0.125E+00 0.125E+00 0.125E+00   -.314E-01 -.314E-01 -.314E-01
   0.242E+03 0.242E+03 0.242E+03   -.243E+03 -.243E+03 -.243E+03   0.126E+01 0.126E+01 0.126E+01   -.163E-01 -.163E-01 -.163E-01
   -.487E+02 -.487E+02 -.487E+02   0.488E+02 0.488E+02 0.488E+02   0.505E-02 0.505E-02 0.505E-02   -.538E-01 -.538E-01 -.538E-01
   0.851E+03 0.851E+03 0.851E+03   -.859E+03 -.859E+03 -.859E+03   0.859E+01 0.859E+01 0.859E+01   0.298E-01 0.298E-01 0.298E-01
   -.417E+01 -.417E+01 -.417E+01   0.426E+01 0.426E+01 0.426E+01   0.115E+00 0.115E+00 0.115E+00   -.164E+00 -.164E+00 -.164E+00
   -.833E+03 -.833E+03 -.833E+03   0.844E+03 0.844E+03 0.844E+03   -.114E+02 -.114E+02 -.114E+02   -.618E-02 -.618E-02 -.618E-02
   0.281E+03 0.281E+03 0.281E+03   -.281E+03 -.281E+03 -.281E+03   0.252E+00 0.252E+00 0.252E+00   -.163E+00 -.163E+00 -.163E+00
   -.572E+03 -.572E+03 -.572E+03   0.573E+03 0.573E+03 0.573E+03   -.712E+00 -.712E+00 -.712E+00   -.144E+00 -.144E+00 -.144E+00
   0.567E+03 0.567E+03 0.567E+03   -.568E+03 -.568E+03 -.568E+03   0.122E+01 0.122E+01 0.122E+01   -.126E+00 -.126E+00 -.126E+00
   -.288E+03 -.288E+03 -.288E+03   0.288E+03 0.288E+03 0.288E+03   -.568E-01 -.568E-01 -.568E-01   -.160E+00 -.160E+00 -.160E+00
 -----------------------------------------------------------------------------------------------
   0.124E+01 0.124E+01 0.124E+01   -.227E-12 -.568E-13 0.000E+00   -.246E+00 -.246E+00 -.246E+00   -.988E+00 -.988E+00 -.988E+00
 
 
 POSITION                                       TOTAL-FORCE (eV/Angst)
 -----------------------------------------------------------------------------------
      2.69594      2.69594      2.69594        -0.003540     -0.003540     -0.003540
      4.82622      4.82622      2.70178        -0.019254     -0.019254     -0.019254
      6.95065      6.95065      6.95065         0.041688      0.041688      0.041688
      9.07509      9.07509      6.95065         0.633698      0.633698      0.633698
      2.65842      0.53399      0.53399         0.001206      0.001206      0.001206
      6.95065      4.82622      4.82622        -0.005687     -0.005687     -0.005687
      0.71013      0.71013      0.71013        -0.000345     -0.000345     -0.000345
      4.82622      4.82622      4.82622         0.035842      0.035842      0.035842
      9.07509      9.07509      9.07509        -0.490175     -0.490175     -0.490175
      4.83379      2.70935      2.70935        -0.004555     -0.004555     -0.004555
      9.07509      6.95065      6.95065        -0.175482     -0.175482     -0.175482
      2.73193      2.73193      0.60749         0.003859      0.003859      0.003859
      6.95065      6.95065      4.82622        -0.017256     -0.017256     -0.017256
 -----------------------------------------------------------------------------------
    total drift:                                0.009612      0.009587      0.009610


--------------------------------------------------------------------------------------------------------



  FREE ENERGIE OF THE ION-ELECTRON SYSTEM (eV)
  ---------------------------------------------------
  free  energy   TOTEN  =       -72.43700352 eV

  energy  without entropy=      -72.41333231  energy(sigma->0) =      -72.42516791
 
 d Force = 0.3388011E-04[ 0.344E-05, 0.643E-04]  d Energy = 0.3353393E-06 0.335E-04
 d Force = 0.9357342E-01[ 0.934E-01, 0.937E-01]  d Ewald  = 0.9357382E-01-0.395E-06


--------------------------------------------------------------------------------------------------------


    POTLOK:  cpu time    0.0104: real time    0.0104


--------------------------------------------------------------------------------------------------------


 stress matrix after NEB project (eV)
     -0.30851     -0.79505     -0.79505
     -0.79505     -0.30851     -0.79505
     -0.79505     -0.79505     -0.30851
  FORCES: max atom, RMS     0.007890    0.003388
  FORCE total and by dimension    0.012216    0.004555
  Stress total and by dimension    2.019437    0.795046
 Conjugate gradient step on ions:
 trial-energy change:   -0.000000  1 .order   -0.000034   -0.000064   -0.000003
  (g-gl).g = 0.411E-04      g.g   = 0.443E-04  gl.gl    = 0.620E-04
 g(Force)  = 0.443E-04   g(Stress)= 0.000E+00 ortho     = 0.315E-05
 gamma     =   0.66362
 trial     =   1.38635
 opt step  =   1.46459  (harmonic =   1.46459) maximal distance =0.00119950
 next E    =   -72.437037   (d E  =  -0.00003)


--------------------------------------------------------------------------------------------------------


  
 reached required accuracy - stopping structural energy minimisation
     LOOP+:  cpu time   14.0257: real time   14.0650
    4ORBIT:  cpu time    0.0000: real time    0.0000

 total amount of memory used by VASP MPI-rank0    38552. kBytes
=======================================================================

   base      :      30000. kBytes
   nonlr-proj:       1581. kBytes
   fftplans  :       1620. kBytes
   grid      :       2363. kBytes
   one-center:         32. kBytes
   wavefun   :       2956. kBytes
 
  
  
 General timing and accounting informations for this job:
 ========================================================
  
                  Total CPU time used (sec):      604.660
                            User time (sec):      602.760
                          System time (sec):        1.900
                         Elapsed time (sec):      610.129
  
                   Maximum memory used (kb):       93116.
                   Average memory used (kb):           0.
  
                          Minor page faults:        81436
                          Major page faults:            0
                 Voluntary context switches:         1597
