       N       E                     dE             d eps       ncg     rms          rms(c)
DAV:   1     0.503884846395E+03    0.50388E+03   -0.44691E+04  6304   0.135E+03
DAV:   2    -0.103462962573E+03   -0.60735E+03   -0.58019E+03  8096   0.262E+02
DAV:   3    -0.155888569453E+03   -0.52426E+02   -0.52136E+02  7384   0.835E+01
DAV:   4    -0.156522754986E+03   -0.63419E+00   -0.63311E+00  7368   0.100E+01
DAV:   5    -0.156531892912E+03   -0.91379E-02   -0.91340E-02  7504   0.118E+00    0.229E+01
DAV:   6    -0.141161364372E+03    0.15371E+02   -0.87166E+01  7584   0.320E+01    0.786E+00
DAV:   7    -0.141037957457E+03    0.12341E+00   -0.20898E+00  7072   0.623E+00    0.478E+00
DAV:   8    -0.140963578209E+03    0.74379E-01   -0.78402E-01  7344   0.460E+00    0.127E+00
DAV:   9    -0.140928870156E+03    0.34708E-01   -0.14315E-01  7216   0.161E+00    0.616E-01
DAV:  10    -0.140932594603E+03   -0.37244E-02   -0.11079E-01  7208   0.135E+00    0.460E-01
DAV:  11    -0.140929191619E+03    0.34030E-02   -0.11168E-02  7528   0.513E-01    0.279E-01
DAV:  12    -0.140928872651E+03    0.31897E-03   -0.17488E-02  7256   0.562E-01    0.161E-01
DAV:  13    -0.140928346241E+03    0.52641E-03   -0.18264E-03  8328   0.255E-01    0.884E-02
DAV:  14    -0.140928109589E+03    0.23665E-03   -0.12560E-03  7616   0.182E-01    0.259E-02
DAV:  15    -0.140927859651E+03    0.24994E-03   -0.17078E-04  9480   0.143E-01    0.183E-02
DAV:  16    -0.140927679078E+03    0.18057E-03   -0.16267E-04  7448   0.127E-01    0.189E-02
DAV:  17    -0.140927501870E+03    0.17721E-03   -0.18743E-04  8960   0.183E-01    0.260E-02
DAV:  18    -0.140927406669E+03    0.95201E-04   -0.19275E-04  8592   0.157E-01    0.227E-02
DAV:  19    -0.140927354422E+03    0.52246E-04   -0.31476E-04  8008   0.156E-01    0.175E-02
DAV:  20    -0.140927305956E+03    0.48467E-04   -0.93125E-05  8872   0.135E-01    0.144E-02
DAV:  21    -0.140927285296E+03    0.20659E-04   -0.79421E-05  6992   0.903E-02    0.849E-03
DAV:  22    -0.140927261726E+03    0.23570E-04   -0.28338E-05  6176   0.102E-01    0.460E-03
DAV:  23    -0.140927257982E+03    0.37448E-05   -0.41229E-05  6544   0.779E-02
   1 F= -.14092726E+03 E0= -.14092480E+03  d E =-.140927E+03
       N       E                     dE             d eps       ncg     rms          rms(c)
DAV:   1    -0.140929278950E+03   -0.20172E-02   -0.40559E-02  6664   0.871E-01    0.530E-02
DAV:   2    -0.140929313954E+03   -0.35005E-04   -0.24578E-03  7408   0.216E-01    0.501E-02
DAV:   3    -0.140929270765E+03    0.43190E-04   -0.22994E-04  7272   0.657E-02    0.375E-02
DAV:   4    -0.140929236972E+03    0.33792E-04   -0.98640E-05  7272   0.450E-02    0.183E-02
DAV:   5    -0.140929201007E+03    0.35966E-04   -0.53144E-05  7168   0.540E-02    0.104E-02
DAV:   6    -0.140929185856E+03    0.15151E-04   -0.23623E-05  6048   0.428E-02    0.802E-03
DAV:   7    -0.140929175836E+03    0.10020E-04   -0.24028E-05  5632   0.352E-02    0.677E-03
DAV:   8    -0.140929158692E+03    0.17144E-04   -0.57461E-06  4424   0.474E-02    0.712E-03
DAV:   9    -0.140929143474E+03    0.15217E-04   -0.11146E-05  5088   0.512E-02    0.628E-03
DAV:  10    -0.140929131312E+03    0.12162E-04   -0.12138E-05  4784   0.563E-02    0.430E-03
DAV:  11    -0.140929119969E+03    0.11343E-04   -0.12744E-05  5232   0.756E-02    0.371E-03
DAV:  12    -0.140929117060E+03    0.29085E-05   -0.31014E-05  6040   0.622E-02
   2 F= -.14092912E+03 E0= -.14092668E+03  d E =-.185908E-02
       N       E                     dE             d eps       ncg     rms          rms(c)
DAV:   1    -0.140929364384E+03   -0.24442E-03   -0.90336E-03  6720   0.410E-01    0.257E-02
DAV:   2    -0.140929370631E+03   -0.62468E-05   -0.55637E-04  7416   0.103E-01    0.238E-02
DAV:   3    -0.140929361066E+03    0.95648E-05   -0.55014E-05  6856   0.319E-02    0.180E-02
DAV:   4    -0.140929353794E+03    0.72716E-05   -0.21497E-05  5560   0.214E-02    0.890E-03
DAV:   5    -0.140929345515E+03    0.82799E-05   -0.11948E-05  5304   0.248E-02    0.445E-03
DAV:   6    -0.140929341783E+03    0.37311E-05   -0.58830E-06  4456   0.192E-02
   3 F= -.14092934E+03 E0= -.14092692E+03  d E =-.208380E-02
       N       E                     dE             d eps       ncg     rms          rms(c)
DAV:   1    -0.140929949799E+03   -0.60428E-03   -0.20111E-01  6304   0.192E+00    0.631E-02
DAV:   2    -0.140930411966E+03   -0.46217E-03   -0.52501E-03  7232   0.267E-01    0.378E-02
DAV:   3    -0.140930382936E+03    0.29030E-04   -0.66674E-05  7416   0.468E-02    0.252E-02
DAV:   4    -0.140930367205E+03    0.15731E-04   -0.34356E-05  6552   0.324E-02    0.116E-02
DAV:   5    -0.140930361232E+03    0.59731E-05   -0.13780E-05  4912   0.304E-02    0.436E-03
DAV:   6    -0.140930360614E+03    0.61792E-06   -0.14029E-05  4312   0.220E-02
   4 F= -.14093036E+03 E0= -.14092797E+03  d E =-.101883E-02
       N       E                     dE             d eps       ncg     rms          rms(c)
DAV:   1    -0.140928518162E+03    0.18431E-02   -0.14409E+00  6288   0.513E+00    0.171E-01
DAV:   2    -0.140931907644E+03   -0.33895E-02   -0.38433E-02  7256   0.722E-01    0.103E-01
DAV:   3    -0.140931679775E+03    0.22787E-03   -0.42607E-04  7464   0.124E-01    0.689E-02
DAV:   4    -0.140931544303E+03    0.13547E-03   -0.30215E-04  7384   0.989E-02    0.295E-02
DAV:   5    -0.140931503801E+03    0.40502E-04   -0.12667E-04  7536   0.858E-02    0.125E-02
DAV:   6    -0.140931484422E+03    0.19379E-04   -0.59992E-05  7136   0.695E-02    0.855E-03
DAV:   7    -0.140931471722E+03    0.12700E-04   -0.26078E-05  5504   0.490E-02    0.707E-03
DAV:   8    -0.140931452890E+03    0.18832E-04   -0.76944E-06  4576   0.564E-02    0.448E-03
DAV:   9    -0.140931434930E+03    0.17960E-04   -0.22143E-05  5736   0.713E-02    0.770E-03
DAV:  10    -0.140931428511E+03    0.64190E-05   -0.21983E-05  5672   0.486E-02
   5 F= -.14093143E+03 E0= -.14092910E+03  d E =-.208673E-02
       N       E                     dE             d eps       ncg     rms          rms(c)
DAV:   1    -0.140931767022E+03   -0.33209E-03   -0.13970E-01  6400   0.164E+00    0.501E-02
DAV:   2    -0.140932095182E+03   -0.32816E-03   -0.35979E-03  7112   0.229E-01    0.324E-02
DAV:   3    -0.140932070806E+03    0.24376E-04   -0.37645E-05  6840   0.381E-02    0.219E-02
DAV:   4    -0.140932050259E+03    0.20547E-04   -0.34144E-05  6576   0.413E-02    0.844E-03
DAV:   5    -0.140932044672E+03    0.55869E-05   -0.23387E-05  5816   0.312E-02    0.456E-03
DAV:   6    -0.140932041058E+03    0.36140E-05   -0.95610E-06  4416   0.219E-02
   6 F= -.14093204E+03 E0= -.14092973E+03  d E =-.612547E-03
       N       E                     dE             d eps       ncg     rms          rms(c)
DAV:   1    -0.140930476502E+03    0.15682E-02   -0.12559E+00  6344   0.492E+00    0.155E-01
DAV:   2    -0.140933396918E+03   -0.29204E-02   -0.32022E-02  7112   0.680E-01    0.884E-02
DAV:   3    -0.140933198726E+03    0.19819E-03   -0.30789E-04  7480   0.106E-01    0.601E-02
DAV:   4    -0.140933029884E+03    0.16884E-03   -0.25820E-04  7584   0.118E-01    0.223E-02
DAV:   5    -0.140932982192E+03    0.47692E-04   -0.19648E-04  7512   0.950E-02    0.138E-02
DAV:   6    -0.140932961137E+03    0.21055E-04   -0.74250E-05  7056   0.562E-02    0.903E-03
DAV:   7    -0.140932934467E+03    0.26670E-04   -0.10348E-05  4976   0.489E-02    0.550E-03
DAV:   8    -0.140932917622E+03    0.16845E-04   -0.22861E-05  5904   0.441E-02    0.511E-03
DAV:   9    -0.140932899280E+03    0.18342E-04   -0.80747E-06  5048   0.578E-02    0.436E-03
DAV:  10    -0.140932888724E+03    0.10556E-04   -0.25876E-05  5888   0.633E-02    0.600E-03
DAV:  11    -0.140932888026E+03    0.69804E-06   -0.33684E-05  6080   0.330E-02
   7 F= -.14093289E+03 E0= -.14093063E+03  d E =-.145952E-02
       N       E                     dE             d eps       ncg     rms          rms(c)
DAV:   1    -0.140933466452E+03   -0.57773E-03   -0.11420E-01  6408   0.149E+00    0.422E-02
DAV:   2    -0.140933678101E+03   -0.21165E-03   -0.24231E-03  7272   0.203E-01    0.253E-02
DAV:   3    -0.140933663515E+03    0.14586E-04   -0.30340E-05  6312   0.294E-02    0.180E-02
DAV:   4    -0.140933651237E+03    0.12278E-04   -0.39303E-05  6624   0.349E-02    0.714E-03
DAV:   5    -0.140933649577E+03    0.16601E-05   -0.12298E-05  4288   0.229E-02    0.675E-03
DAV:   6    -0.140933648031E+03    0.15464E-05   -0.76405E-06  4328   0.190E-02
   8 F= -.14093365E+03 E0= -.14093140E+03  d E =-.760005E-03
       N       E                     dE             d eps       ncg     rms          rms(c)
DAV:   1    -0.140933132549E+03    0.51703E-03   -0.10283E+00  6352   0.448E+00    0.129E-01
DAV:   2    -0.140935091034E+03   -0.19585E-02   -0.22156E-02  7280   0.608E-01    0.762E-02
DAV:   3    -0.140934959202E+03    0.13183E-03   -0.24911E-04  7472   0.862E-02    0.525E-02
DAV:   4    -0.140934857542E+03    0.10166E-03   -0.40456E-04  7336   0.112E-01    0.217E-02
DAV:   5    -0.140934849380E+03    0.81620E-05   -0.12621E-04  7312   0.598E-02    0.221E-02
DAV:   6    -0.140934837539E+03    0.11840E-04   -0.49562E-05  6424   0.375E-02    0.102E-02
DAV:   7    -0.140934820959E+03    0.16581E-04   -0.61865E-06  4688   0.395E-02    0.647E-03
DAV:   8    -0.140934805808E+03    0.15150E-04   -0.12148E-05  4968   0.459E-02    0.613E-03
DAV:   9    -0.140934785833E+03    0.19975E-04   -0.15654E-05  5384   0.745E-02    0.622E-03
DAV:  10    -0.140934768328E+03    0.17505E-04   -0.27750E-05  6112   0.962E-02    0.539E-03
DAV:  11    -0.140934766257E+03    0.20713E-05   -0.48689E-05  6560   0.547E-02
   9 F= -.14093477E+03 E0= -.14093255E+03  d E =-.187823E-02
       N       E                     dE             d eps       ncg     rms          rms(c)
DAV:   1    -0.140935096869E+03   -0.32854E-03   -0.33431E-01  6376   0.258E+00    0.767E-02
DAV:   2    -0.140935780914E+03   -0.68404E-03   -0.75858E-03  7200   0.357E-01    0.425E-02
DAV:   3    -0.140935732482E+03    0.48432E-04   -0.95230E-05  7400   0.579E-02    0.291E-02
DAV:   4    -0.140935689542E+03    0.42940E-04   -0.76915E-05  7392   0.707E-02    0.119E-02
DAV:   5    -0.140935675018E+03    0.14524E-04   -0.57218E-05  7160   0.598E-02    0.105E-02
DAV:   6    -0.140935669869E+03    0.51488E-05   -0.36118E-05  6328   0.356E-02
  10 F= -.14093567E+03 E0= -.14093347E+03  d E =-.903613E-03
       N       E                     dE             d eps       ncg     rms          rms(c)
DAV:   1    -0.140931357159E+03    0.43179E-02   -0.28380E+00  6344   0.751E+00    0.219E-01
DAV:   2    -0.140937158961E+03   -0.58018E-02   -0.64095E-02  7208   0.104E+00    0.125E-01
DAV:   3    -0.140936733003E+03    0.42596E-03   -0.84659E-04  7536   0.178E-01    0.845E-02
DAV:   4    -0.140936321868E+03    0.41114E-03   -0.55846E-04  7872   0.210E-01    0.346E-02
DAV:   5    -0.140936152619E+03    0.16925E-03   -0.47597E-04  7728   0.195E-01    0.274E-02
DAV:   6    -0.140936077684E+03    0.74935E-04   -0.34806E-04  7344   0.136E-01    0.210E-02
DAV:   7    -0.140935937052E+03    0.14063E-03   -0.10830E-04  9928   0.165E-01    0.220E-02
DAV:   8    -0.140935820196E+03    0.11686E-03   -0.84980E-05  8456   0.148E-01    0.180E-02
DAV:   9    -0.140935688954E+03    0.13124E-03   -0.16597E-04  9504   0.240E-01    0.103E-02
DAV:  10    -0.140935643579E+03    0.45375E-04   -0.20414E-04  8344   0.203E-01    0.155E-02
DAV:  11    -0.140935663578E+03   -0.19999E-04   -0.28630E-04  7096   0.703E-02    0.114E-02
DAV:  12    -0.140935663846E+03   -0.26837E-06   -0.27251E-05  5856   0.229E-02
  11 F= -.14093566E+03 E0= -.14093351E+03  d E =-.897590E-03
       N       E                     dE             d eps       ncg     rms          rms(c)
DAV:   1    -0.140935245981E+03    0.41760E-03   -0.53048E-01  6400   0.325E+00    0.957E-02
DAV:   2    -0.140936328114E+03   -0.10821E-02   -0.11869E-02  7192   0.448E-01    0.525E-02
DAV:   3    -0.140936254005E+03    0.74110E-04   -0.14096E-04  7440   0.701E-02    0.358E-02
DAV:   4    -0.140936189714E+03    0.64290E-04   -0.12779E-04  7512   0.851E-02    0.141E-02
DAV:   5    -0.140936170960E+03    0.18754E-04   -0.86396E-05  7368   0.659E-02    0.130E-02
DAV:   6    -0.140936164288E+03    0.66724E-05   -0.43468E-05  6584   0.358E-02
  12 F= -.14093616E+03 E0= -.14093399E+03  d E =-.139803E-02
       N       E                     dE             d eps       ncg     rms          rms(c)
DAV:   1    -0.140935886667E+03    0.28429E-03   -0.18211E-01  6312   0.191E+00    0.559E-02
DAV:   2    -0.140936237682E+03   -0.35102E-03   -0.41024E-03  7224   0.271E-01    0.321E-02
DAV:   3    -0.140936200137E+03    0.37545E-04   -0.80105E-05  7344   0.562E-02    0.223E-02
DAV:   4    -0.140936157190E+03    0.42947E-04   -0.30952E-05  6384   0.564E-02    0.109E-02
DAV:   5    -0.140936117530E+03    0.39660E-04   -0.30145E-05  6408   0.782E-02    0.823E-03
DAV:   6    -0.140936101010E+03    0.16520E-04   -0.48646E-05  6624   0.602E-02    0.815E-03
DAV:   7    -0.140936069145E+03    0.31865E-04   -0.27152E-05  6168   0.109E-01    0.993E-03
DAV:   8    -0.140936048587E+03    0.20557E-04   -0.50136E-05  7072   0.938E-02    0.943E-03
DAV:   9    -0.140936046136E+03    0.24514E-05   -0.45710E-05  6440   0.361E-02
  13 F= -.14093605E+03 E0= -.14093386E+03  d E =-.127988E-02
       N       E                     dE             d eps       ncg     rms          rms(c)
DAV:   1    -0.140936031545E+03    0.17042E-04   -0.35813E-02  6472   0.845E-01    0.251E-02
DAV:   2    -0.140936107338E+03   -0.75793E-04   -0.81641E-04  7216   0.116E-01    0.153E-02
DAV:   3    -0.140936102189E+03    0.51495E-05   -0.78473E-06  4304   0.181E-02    0.103E-02
DAV:   4    -0.140936098764E+03    0.34243E-05   -0.14940E-05  4592   0.273E-02    0.308E-03
DAV:   5    -0.140936099139E+03   -0.37436E-06   -0.85605E-06  3880   0.130E-02    0.373E-03
DAV:   6    -0.140936098989E+03    0.14998E-06   -0.83198E-07  3528   0.408E-03
  14 F= -.14093610E+03 E0= -.14093392E+03  d E =-.133273E-02
       N       E                     dE             d eps       ncg     rms          rms(c)
DAV:   1    -0.140936239158E+03   -0.14002E-03   -0.39778E-01  6352   0.283E+00    0.813E-02
DAV:   2    -0.140937072191E+03   -0.83303E-03   -0.90103E-03  7128   0.388E-01    0.454E-02
DAV:   3    -0.140937024874E+03    0.47317E-04   -0.89950E-05  7424   0.467E-02    0.310E-02
DAV:   4    -0.140936993140E+03    0.31734E-04   -0.94612E-05  7152   0.584E-02    0.103E-02
DAV:   5    -0.140936991414E+03    0.17257E-05   -0.46783E-05  6656   0.317E-02    0.870E-03
DAV:   6    -0.140936989819E+03    0.15955E-05   -0.48665E-06  4192   0.109E-02
  15 F= -.14093699E+03 E0= -.14093483E+03  d E =-.890830E-03
       N       E                     dE             d eps       ncg     rms          rms(c)
DAV:   1    -0.140931709349E+03    0.52821E-02   -0.35771E+00  6336   0.850E+00    0.243E-01
DAV:   2    -0.140939217042E+03   -0.75077E-02   -0.81277E-02  7160   0.116E+00    0.137E-01
DAV:   3    -0.140938777516E+03    0.43953E-03   -0.80373E-04  7432   0.143E-01    0.928E-02
DAV:   4    -0.140938462140E+03    0.31538E-03   -0.79996E-04  7368   0.180E-01    0.311E-02
DAV:   5    -0.140938430669E+03    0.31471E-04   -0.45456E-04  7216   0.109E-01    0.259E-02
DAV:   6    -0.140938412438E+03    0.18231E-04   -0.70515E-05  6912   0.402E-02    0.173E-02
DAV:   7    -0.140938377748E+03    0.34690E-04   -0.19554E-05  4936   0.349E-02    0.946E-03
DAV:   8    -0.140938326965E+03    0.50783E-04   -0.15967E-05  5232   0.638E-02    0.100E-02
DAV:   9    -0.140938243986E+03    0.82979E-04   -0.93902E-05  8984   0.169E-01    0.163E-02
DAV:  10    -0.140938205482E+03    0.38504E-04   -0.95629E-05  8208   0.113E-01    0.187E-02
DAV:  11    -0.140938170996E+03    0.34487E-04   -0.12213E-04  7984   0.119E-01    0.187E-02
DAV:  12    -0.140938165000E+03    0.59955E-05   -0.77060E-05  7088   0.625E-02
  16 F= -.14093817E+03 E0= -.14093603E+03  d E =-.206601E-02
       N       E                     dE             d eps       ncg     rms          rms(c)
DAV:   1    -0.140938400715E+03   -0.22972E-03   -0.33284E-01  6400   0.260E+00    0.773E-02
DAV:   2    -0.140939079385E+03   -0.67867E-03   -0.75205E-03  7216   0.360E-01    0.409E-02
DAV:   3    -0.140939047911E+03    0.31473E-04   -0.11079E-04  7472   0.504E-02    0.289E-02
DAV:   4    -0.140939027071E+03    0.20840E-04   -0.63691E-05  7056   0.446E-02    0.129E-02
DAV:   5    -0.140939021474E+03    0.55971E-05   -0.27886E-05  5776   0.352E-02    0.948E-03
DAV:   6    -0.140939019692E+03    0.17816E-05   -0.17597E-05  4448   0.250E-02
  17 F= -.14093902E+03 E0= -.14093690E+03  d E =-.854692E-03
       N       E                     dE             d eps       ncg     rms          rms(c)
DAV:   1    -0.140934371542E+03    0.46499E-02   -0.29962E+00  6280   0.781E+00    0.230E-01
DAV:   2    -0.140940548438E+03   -0.61769E-02   -0.67588E-02  7200   0.107E+00    0.124E-01
DAV:   3    -0.140940233231E+03    0.31521E-03   -0.86057E-04  7520   0.141E-01    0.844E-02
DAV:   4    -0.140940001828E+03    0.23140E-03   -0.63363E-04  7376   0.142E-01    0.339E-02
DAV:   5    -0.140939949927E+03    0.51900E-04   -0.28203E-04  7712   0.101E-01    0.306E-02
DAV:   6    -0.140939912634E+03    0.37293E-04   -0.14942E-04  7400   0.772E-02    0.161E-02
DAV:   7    -0.140939887199E+03    0.25436E-04   -0.39909E-05  6368   0.443E-02    0.124E-02
DAV:   8    -0.140939851465E+03    0.35734E-04   -0.98285E-06  4960   0.514E-02    0.888E-03
DAV:   9    -0.140939791694E+03    0.59771E-04   -0.47136E-05  7216   0.989E-02    0.566E-03
DAV:  10    -0.140939746353E+03    0.45341E-04   -0.60897E-05  7368   0.115E-01    0.101E-02
DAV:  11    -0.140939727371E+03    0.18983E-04   -0.59967E-05  7472   0.887E-02    0.647E-03
DAV:  12    -0.140939718569E+03    0.88013E-05   -0.36067E-05  6264   0.703E-02
  18 F= -.14093972E+03 E0= -.14093764E+03  d E =-.155357E-02
       N       E                     dE             d eps       ncg     rms          rms(c)
DAV:   1    -0.140939501319E+03    0.22605E-03   -0.17577E-01  6384   0.189E+00    0.545E-02
DAV:   2    -0.140939849509E+03   -0.34819E-03   -0.38399E-03  7208   0.257E-01    0.295E-02
DAV:   3    -0.140939830108E+03    0.19401E-04   -0.54187E-05  7176   0.384E-02    0.202E-02
DAV:   4    -0.140939815421E+03    0.14687E-04   -0.26684E-05  5576   0.368E-02    0.877E-03
DAV:   5    -0.140939810350E+03    0.50716E-05   -0.20933E-05  5016   0.356E-02    0.642E-03
DAV:   6    -0.140939810065E+03    0.28453E-06   -0.16355E-05  4312   0.200E-02
  19 F= -.14093981E+03 E0= -.14093773E+03  d E =-.164507E-02
       N       E                     dE             d eps       ncg     rms          rms(c)
DAV:   1    -0.140939430887E+03    0.37946E-03   -0.62432E-01  6368   0.357E+00    0.101E-01
DAV:   2    -0.140940735330E+03   -0.13044E-02   -0.14102E-02  7200   0.491E-01    0.572E-02
DAV:   3    -0.140940666357E+03    0.68973E-04   -0.15814E-04  7488   0.619E-02    0.393E-02
DAV:   4    -0.140940613121E+03    0.53236E-04   -0.12226E-04  7248   0.651E-02    0.148E-02
DAV:   5    -0.140940604197E+03    0.89237E-05   -0.61808E-05  7128   0.520E-02    0.123E-02
DAV:   6    -0.140940600385E+03    0.38120E-05   -0.37316E-05  6320   0.352E-02
  20 F= -.14094060E+03 E0= -.14093853E+03  d E =-.790320E-03
       N       E                     dE             d eps       ncg     rms          rms(c)
DAV:   1    -0.140935788122E+03    0.48161E-02   -0.27204E+00  6344   0.745E+00    0.218E-01
DAV:   2    -0.140941530485E+03   -0.57424E-02   -0.62123E-02  7200   0.103E+00    0.118E-01
DAV:   3    -0.140941232520E+03    0.29797E-03   -0.71648E-04  7440   0.133E-01    0.802E-02
DAV:   4    -0.140941008882E+03    0.22364E-03   -0.50535E-04  7296   0.135E-01    0.307E-02
DAV:   5    -0.140940966893E+03    0.41988E-04   -0.25353E-04  7432   0.113E-01    0.255E-02
DAV:   6    -0.140940947691E+03    0.19202E-04   -0.18084E-04  7104   0.830E-02    0.159E-02
DAV:   7    -0.140940929654E+03    0.18037E-04   -0.26977E-05  5744   0.434E-02    0.111E-02
DAV:   8    -0.140940890253E+03    0.39401E-04   -0.10886E-05  5048   0.814E-02    0.576E-03
DAV:   9    -0.140940851992E+03    0.38261E-04   -0.48212E-05  7480   0.117E-01    0.780E-03
DAV:  10    -0.140940833654E+03    0.18338E-04   -0.40913E-05  6800   0.105E-01    0.660E-03
DAV:  11    -0.140940834020E+03   -0.36530E-06   -0.71256E-05  7016   0.675E-02
  21 F= -.14094083E+03 E0= -.14093878E+03  d E =-.102395E-02
       N       E                     dE             d eps       ncg     rms          rms(c)
DAV:   1    -0.140940352582E+03    0.48107E-03   -0.31388E-01  6376   0.253E+00    0.760E-02
DAV:   2    -0.140941010957E+03   -0.65837E-03   -0.71256E-03  7176   0.350E-01    0.390E-02
DAV:   3    -0.140940979876E+03    0.31081E-04   -0.88605E-05  7432   0.451E-02    0.265E-02
DAV:   4    -0.140940960085E+03    0.19791E-04   -0.56281E-05  6984   0.381E-02    0.106E-02
DAV:   5    -0.140940956431E+03    0.36543E-05   -0.18639E-05  4624   0.292E-02    0.741E-03
DAV:   6    -0.140940955156E+03    0.12747E-05   -0.14533E-05  4464   0.251E-02
  22 F= -.14094096E+03 E0= -.14093890E+03  d E =-.114509E-02
       N       E                     dE             d eps       ncg     rms          rms(c)
DAV:   1    -0.140940160243E+03    0.79619E-03   -0.76450E-01  6416   0.395E+00    0.114E-01
DAV:   2    -0.140941815587E+03   -0.16553E-02   -0.17882E-02  7168   0.549E-01    0.660E-02
DAV:   3    -0.140941713990E+03    0.10160E-03   -0.16943E-04  7480   0.703E-02    0.457E-02
DAV:   4    -0.140941628849E+03    0.85141E-04   -0.19186E-04  7352   0.959E-02    0.157E-02
DAV:   5    -0.140941618032E+03    0.10817E-04   -0.11950E-04  7088   0.621E-02    0.150E-02
DAV:   6    -0.140941612797E+03    0.52351E-05   -0.32162E-05  5744   0.269E-02
  23 F= -.14094161E+03 E0= -.14093957E+03  d E =-.657641E-03
       N       E                     dE             d eps       ncg     rms          rms(c)
DAV:   1    -0.140939919867E+03    0.16982E-02   -0.95204E-01  6432   0.441E+00    0.131E-01
DAV:   2    -0.140941965473E+03   -0.20456E-02   -0.22356E-02  7168   0.615E-01    0.724E-02
DAV:   3    -0.140941824615E+03    0.14086E-03   -0.22988E-04  7464   0.880E-02    0.500E-02
DAV:   4    -0.140941692588E+03    0.13203E-03   -0.21545E-04  7472   0.114E-01    0.191E-02
DAV:   5    -0.140941649073E+03    0.43515E-04   -0.15943E-04  7464   0.900E-02    0.165E-02
DAV:   6    -0.140941629832E+03    0.19242E-04   -0.82356E-05  6904   0.503E-02    0.106E-02
DAV:   7    -0.140941594340E+03    0.35492E-04   -0.97813E-06  4440   0.442E-02    0.667E-03
DAV:   8    -0.140941525166E+03    0.69174E-04   -0.27639E-05  6024   0.102E-01    0.106E-02
DAV:   9    -0.140941446002E+03    0.79164E-04   -0.10479E-04  9016   0.193E-01    0.196E-02
DAV:  10    -0.140941391382E+03    0.54620E-04   -0.18657E-04  9944   0.228E-01    0.186E-02
DAV:  11    -0.140941396876E+03   -0.54943E-05   -0.20681E-04  6976   0.600E-02    0.185E-02
DAV:  12    -0.140941392907E+03    0.39695E-05   -0.14924E-05  4656   0.393E-02
  24 F= -.14094139E+03 E0= -.14093936E+03  d E =-.437751E-03
       N       E                     dE             d eps       ncg     rms          rms(c)
DAV:   1    -0.140941086751E+03    0.31013E-03   -0.25046E-01  6536   0.226E+00    0.702E-02
DAV:   2    -0.140941630836E+03   -0.54409E-03   -0.58837E-03  7152   0.314E-01    0.365E-02
DAV:   3    -0.140941597375E+03    0.33461E-04   -0.57062E-05  7024   0.389E-02    0.239E-02
DAV:   4    -0.140941573907E+03    0.23468E-04   -0.53729E-05  7016   0.498E-02    0.783E-03
DAV:   5    -0.140941571854E+03    0.20531E-05   -0.30607E-05  5776   0.320E-02    0.662E-03
DAV:   6    -0.140941570314E+03    0.15394E-05   -0.74288E-06  4192   0.161E-02
  25 F= -.14094157E+03 E0= -.14093953E+03  d E =-.615158E-03
       N       E                     dE             d eps       ncg     rms          rms(c)
DAV:   1    -0.140941550616E+03    0.21238E-04   -0.20998E-02  6496   0.656E-01    0.204E-02
DAV:   2    -0.140941594111E+03   -0.43495E-04   -0.49608E-04  7216   0.932E-02    0.103E-02
DAV:   3    -0.140941590060E+03    0.40519E-05   -0.65016E-06  4216   0.173E-02    0.717E-03
DAV:   4    -0.140941585063E+03    0.49967E-05   -0.37041E-06  4336   0.220E-02    0.308E-03
DAV:   5    -0.140941581585E+03    0.34781E-05   -0.47250E-06  4360   0.244E-02    0.276E-03
DAV:   6    -0.140941580560E+03    0.10244E-05   -0.55914E-06  4144   0.150E-02
  26 F= -.14094158E+03 E0= -.14093954E+03  d E =-.625404E-03
       N       E                     dE             d eps       ncg     rms          rms(c)
DAV:   1    -0.140941565787E+03    0.15798E-04   -0.90785E-03  6488   0.432E-01    0.124E-02
DAV:   2    -0.140941584683E+03   -0.18896E-04   -0.21806E-04  7216   0.618E-02    0.780E-03
DAV:   3    -0.140941582396E+03    0.22870E-05   -0.22624E-06  4168   0.107E-02    0.548E-03
DAV:   4    -0.140941578522E+03    0.38735E-05   -0.29471E-06  4312   0.194E-02    0.208E-03
DAV:   5    -0.140941577131E+03    0.13913E-05   -0.34352E-06  4144   0.144E-02    0.231E-03
DAV:   6    -0.140941575840E+03    0.12911E-05   -0.21946E-06  4160   0.147E-02
  27 F= -.14094158E+03 E0= -.14093953E+03  d E =-.620684E-03
       N       E                     dE             d eps       ncg     rms          rms(c)
DAV:   1    -0.140941625336E+03   -0.48205E-04   -0.95666E-02  6528   0.139E+00    0.422E-02
DAV:   2    -0.140941810513E+03   -0.18518E-03   -0.22837E-03  7224   0.199E-01    0.263E-02
DAV:   3    -0.140941793286E+03    0.17228E-04   -0.41330E-05  6944   0.356E-02    0.195E-02
DAV:   4    -0.140941778373E+03    0.14913E-04   -0.43599E-05  6648   0.383E-02    0.853E-03
DAV:   5    -0.140941773674E+03    0.46995E-05   -0.14735E-05  4808   0.261E-02    0.766E-03
DAV:   6    -0.140941769683E+03    0.39904E-05   -0.88906E-06  4184   0.225E-02
  28 F= -.14094177E+03 E0= -.14093974E+03  d E =-.193843E-03
