 vasp.5.3.5 31Mar14 (build Apr 08 2024 10:12:10) complex                        
  
 executed on             LinuxIFC date 2024.07.29  12:41:57
 running on    8 total cores
 distrk:  each k-point on    8 cores,    1 groups
 distr:  one band on NCORES_PER_BAND=   4 cores,    2 groups


--------------------------------------------------------------------------------------------------------


 INCAR:
 POTCAR:    PAW_PBE O 08Apr2002                   
 POTCAR:    PAW_PBE Mg 13Apr2007                  
 POTCAR:    PAW_PBE Al 04Jan2001                  
 POTCAR:    PAW_PBE O 08Apr2002                   
   VRHFIN =O: s2p4                                                              
   LEXCH  = PE                                                                  
   EATOM  =   432.3788 eV,   31.7789 Ry                                         
                                                                                
   TITEL  = PAW_PBE O 08Apr2002                                                 
   LULTRA =        F    use ultrasoft PP ?                                      
   IUNSCR =        1    unscreen: 0-lin 1-nonlin 2-no                           
   RPACOR =    1.200    partial core radius                                     
   POMASS =   16.000; ZVAL   =    6.000    mass and valenz                      
   RCORE  =    1.520    outmost cutoff radius                                   
   RWIGS  =    1.550; RWIGS  =    0.820    wigner-seitz radius (au A)           
   ENMAX  =  400.000; ENMIN  =  300.000 eV                                      
   ICORE  =        2    local potential                                         
   LCOR   =        T    correct aug charges                                     
   LPAW   =        T    paw PP                                                  
   EAUG   =  605.392                                                            
   DEXC   =    0.000                                                            
   RMAX   =    1.553    core radius for proj-oper                               
   RAUG   =    1.300    factor for augmentation sphere                          
   RDEP   =    1.550    radius for radial grids                                 
   RDEPT  =    1.329    core radius for aug-charge                              
                                                                                
   Atomic configuration                                                         
    4 entries                                                                   
     n  l   j            E        occ.                                          
     1  0  0.50      -514.6923   2.0000                                         
     2  0  0.50       -23.9615   2.0000                                         
     2  1  0.50        -9.0305   4.0000                                         
     3  2  1.50        -9.5241   0.0000                                         
   Description                                                                  
     l       E           TYP  RCUT    TYP  RCUT                                 
     0    -23.9615318     23  1.200                                             
     0     -9.5240782     23  1.200                                             
     1     -9.0304911     23  1.520                                             
     1      8.1634956     23  1.520                                             
     2     -9.5240782      7  1.500                                             
  local pseudopotential read in
  partial core-charges read in
  partial kinetic energy density read in
  kinetic energy density of atom read in
  atomic valenz-charges read in
  non local Contribution for L=           0  read in
    real space projection operators read in
  non local Contribution for L=           0  read in
    real space projection operators read in
  non local Contribution for L=           1  read in
    real space projection operators read in
  non local Contribution for L=           1  read in
    real space projection operators read in
    PAW grid and wavefunctions read in
 
   number of l-projection  operators is LMAX  =           4
   number of lm-projection operators is LMMAX =           8
 
 POTCAR:    PAW_PBE Mg 13Apr2007                  
   VRHFIN =Mg: s2p0                                                             
   LEXCH  = PE                                                                  
   EATOM  =    23.0369 eV,    1.6932 Ry                                         
                                                                                
   TITEL  = PAW_PBE Mg 13Apr2007                                                
   LULTRA =        F    use ultrasoft PP ?                                      
   IUNSCR =        1    unscreen: 0-lin 1-nonlin 2-no                           
   RPACOR =    1.500    partial core radius                                     
   POMASS =   24.305; ZVAL   =    2.000    mass and valenz                      
   RCORE  =    2.000    outmost cutoff radius                                   
   RWIGS  =    2.880; RWIGS  =    1.524    wigner-seitz radius (au A)           
   ENMAX  =  200.000; ENMIN  =  100.000 eV                                      
   RCLOC  =    1.506    cutoff for local pot                                    
   LCOR   =        T    correct aug charges                                     
   LPAW   =        T    paw PP                                                  
   EAUG   =  454.734                                                            
   DEXC   =    0.000                                                            
   RMAX   =    2.045    core radius for proj-oper                               
   RAUG   =    1.300    factor for augmentation sphere                          
   RDEP   =    2.025    radius for radial grids                                 
   RDEPT  =    1.942    core radius for aug-charge                              
                                                                                
   Atomic configuration                                                         
    6 entries                                                                   
     n  l   j            E        occ.                                          
     1  0  0.50     -1259.6230   2.0000                                         
     2  0  0.50       -79.8442   2.0000                                         
     2  1  1.50       -46.6121   6.0000                                         
     3  0  0.50        -4.7055   2.0000                                         
     3  1  0.50        -1.3660   0.0000                                         
     3  2  1.50        -1.3606   0.0000                                         
   Description                                                                  
     l       E           TYP  RCUT    TYP  RCUT                                 
     0     -4.7054661     23  2.000                                             
     0     27.2116520     23  2.000                                             
     1      1.3605826     23  2.000                                             
     1     27.2116520     23  2.000                                             
     2     -1.3605826     23  2.000                                             
  local pseudopotential read in
  partial core-charges read in
  partial kinetic energy density read in
  atomic valenz-charges read in
  non local Contribution for L=           0  read in
    real space projection operators read in
  non local Contribution for L=           0  read in
    real space projection operators read in
  non local Contribution for L=           1  read in
    real space projection operators read in
  non local Contribution for L=           1  read in
    real space projection operators read in
  non local Contribution for L=           2  read in
    real space projection operators read in
    PAW grid and wavefunctions read in
 
   number of l-projection  operators is LMAX  =           5
   number of lm-projection operators is LMMAX =          13
 
 POTCAR:    PAW_PBE Al 04Jan2001                  
   VRHFIN =Al: s2p1                                                             
   LEXCH  = PE                                                                  
   EATOM  =    53.5387 eV,    3.9350 Ry                                         
                                                                                
   TITEL  = PAW_PBE Al 04Jan2001                                                
   LULTRA =        F    use ultrasoft PP ?                                      
   IUNSCR =        1    unscreen: 0-lin 1-nonlin 2-no                           
   RPACOR =    1.500    partial core radius                                     
   POMASS =   26.981; ZVAL   =    3.000    mass and valenz                      
   RCORE  =    1.900    outmost cutoff radius                                   
   RWIGS  =    2.650; RWIGS  =    1.402    wigner-seitz radius (au A)           
   ENMAX  =  240.300; ENMIN  =  180.225 eV                                      
   ICORE  =        2    local potential                                         
   LCOR   =        T    correct aug charges                                     
   LPAW   =        T    paw PP                                                  
   EAUG   =  291.052                                                            
   DEXC   =    0.000                                                            
   RMAX   =    1.939    core radius for proj-oper                               
   RAUG   =    1.300    factor for augmentation sphere                          
   RDEP   =    1.966    radius for radial grids                                 
   RDEPT  =    1.856    core radius for aug-charge                              
                                                                                
   Atomic configuration                                                         
    6 entries                                                                   
     n  l   j            E        occ.                                          
     1  0  0.50     -1511.1048   2.0000                                         
     2  0  0.50      -108.1629   2.0000                                         
     2  1  1.50       -69.6402   6.0000                                         
     3  0  0.50        -7.7528   2.0000                                         
     3  1  1.50        -2.7121   1.0000                                         
     3  2  2.50        -2.7212   0.0000                                         
   Description                                                                  
     l       E           TYP  RCUT    TYP  RCUT                                 
     0     -7.7528455     23  1.900                                             
     0     -3.3096929     23  1.900                                             
     1     -2.7120682     23  1.900                                             
     1     13.6058260     23  1.900                                             
     2     -2.7211652      7  1.900                                             
  local pseudopotential read in
  partial core-charges read in
  partial kinetic energy density read in
  atomic valenz-charges read in
  non local Contribution for L=           0  read in
    real space projection operators read in
  non local Contribution for L=           0  read in
    real space projection operators read in
  non local Contribution for L=           1  read in
    real space projection operators read in
  non local Contribution for L=           1  read in
    real space projection operators read in
    PAW grid and wavefunctions read in
 
   number of l-projection  operators is LMAX  =           4
   number of lm-projection operators is LMMAX =           8
 

 ----------------------------------------------------------------------------- 
|                                                                             |
|  ADVICE TO THIS USER RUNNING 'VASP/VAMP'   (HEAR YOUR MASTER'S VOICE ...):  |
|                                                                             |
|      You have a (more or less) 'large supercell' and for larger cells       |
|      it might be more efficient to use real space projection opertators     |
|      So try LREAL= Auto  in the INCAR   file.                               |
|      Mind: At the moment your POTCAR file does not contain real space       |
|       projectors, and has to be modified,  BUT if you                       |
|      want to do an extremely  accurate calculation you might also keep the  |
|      reciprocal projection scheme          (i.e. LREAL=.FALSE.)             |
|                                                                             |
 ----------------------------------------------------------------------------- 

  PAW_PBE O 08Apr2002                   :
 energy of atom  1       EATOM= -432.3788
 kinetic energy error for atom=    0.0208 (will be added to EATOM!!)
  PAW_PBE Mg 13Apr2007                  :
 energy of atom  2       EATOM=  -23.0369
 kinetic energy error for atom=    0.0000 (will be added to EATOM!!)
  PAW_PBE Al 04Jan2001                  :
 energy of atom  3       EATOM=  -53.5387
 kinetic energy error for atom=    0.0002 (will be added to EATOM!!)
 
 
 POSCAR: OT hollow                               
  positions in direct lattice
  velocities in cartesian coordinates
 exchange correlation table for  LEXCH =        8
   RHO(1)=    0.500       N(1)  =     2000
   RHO(2)=  100.500       N(2)  =     4000
 


--------------------------------------------------------------------------------------------------------


 ion  position               nearest neighbor table
   1  0.504  0.496  0.241-  21 2.09  21 2.09  14 2.09  14 2.15  14 2.15
   2  0.506  0.494  0.431-  16 2.12  16 2.12  15 2.12  15 2.12  16 2.16  15 2.16
   3  0.494  0.506  0.621-  17 2.12  17 2.12  18 2.12  18 2.12  17 2.16  18 2.16
   4  0.496  0.504  0.811-  24 2.09  24 2.09  19 2.10  19 2.15  19 2.15
   5  0.847  0.153  0.304-  14 2.12  14 2.12  11 2.12  11 2.12  11 2.16  14 2.16
   6  0.176  0.824  0.368-  15 2.12  15 2.12  11 2.12  11 2.12  15 2.16  11 2.16
   7  0.835  0.165  0.494-  12 2.12  12 2.12  16 2.12  16 2.12  16 2.16  12 2.16
   8  0.165  0.835  0.558-  12 2.12  12 2.12  17 2.12  17 2.12  12 2.16  17 2.16
   9  0.824  0.176  0.685-  18 2.12  18 2.12  13 2.12  13 2.12  18 2.16  13 2.16
  10  0.153  0.847  0.748-  19 2.12  19 2.12  13 2.12  13 2.12  13 2.16  19 2.16
  11  0.511  0.489  0.336-   5 2.12   5 2.12   6 2.12   6 2.12   5 2.16   6 2.16  15 3.05  15 3.05
                            14 3.05  14 3.05  14 3.06  15 3.06
  12  0.500  0.500  0.526-   8 2.12   8 2.12   7 2.12   7 2.12   8 2.16   7 2.16  17 3.05  17 3.05
                            16 3.05  16 3.05  17 3.06  16 3.06
  13  0.489  0.511  0.716-  10 2.12  10 2.12   9 2.12   9 2.12   9 2.16  10 2.16  18 3.05  18 3.05
                            19 3.05  19 3.05  19 3.06  18 3.06
  14  0.183  0.817  0.272-   1 2.09   5 2.12   5 2.12   1 2.15   1 2.15   5 2.16  21 2.92  11 3.05
                            11 3.05  11 3.06  21 3.50  21 3.50
  15  0.841  0.159  0.399-   6 2.12   6 2.12   2 2.12   2 2.12   6 2.16   2 2.16  11 3.05  11 3.05
                            16 3.05  16 3.05  11 3.06  16 3.06
  16  0.170  0.830  0.463-   2 2.12   2 2.12   7 2.12   7 2.12   7 2.16   2 2.16  12 3.05  12 3.05
                            15 3.05  15 3.05  12 3.06  15 3.06
  17  0.830  0.170  0.589-   3 2.12   3 2.12   8 2.12   8 2.12   3 2.16   8 2.16  12 3.05  12 3.05
                            18 3.05  18 3.05  18 3.06  12 3.06
  18  0.159  0.841  0.653-   9 2.12   9 2.12   3 2.12   3 2.12   9 2.16   3 2.16  13 3.05  13 3.05
                            17 3.05  17 3.05  13 3.06  17 3.06
  19  0.817  0.183  0.780-   4 2.10  10 2.12  10 2.12   4 2.15   4 2.15  10 2.16  24 2.92  13 3.05
                            13 3.05  13 3.06  24 3.50  24 3.50
  20  0.000  1.000  0.026-  25 2.93  25 2.93  23 2.93  23 2.93  25 2.94  23 2.94
  21  0.989  0.011  0.204-   1 2.09   1 2.09  22 2.83  22 2.91  22 2.91  14 2.92  14 3.50  14 3.50

  22  0.680  0.320  0.146-  21 2.83  21 2.91  21 2.91  23 2.91  23 2.91  23 3.01
  23  0.331  0.669  0.086-  22 2.91  22 2.91  20 2.93  20 2.93  20 2.94  22 3.01
  24  0.011  0.989  0.848-   4 2.09   4 2.09  26 2.83  26 2.91  26 2.91  19 2.92  19 3.50  19 3.50

  25  0.669  0.331  0.966-  26 2.91  26 2.91  20 2.93  20 2.93  20 2.94  26 3.01
  26  0.320  0.680  0.906-  24 2.83  24 2.91  24 2.91  25 2.91  25 2.91  25 3.01
 
  LATTYP: Found a base centered monoclinic cell.
 ALAT       =     5.2353752010
 B/A-ratio  =     0.5612349741
 C/A-ratio  =     7.6723649030
 COS(beta)  =    -0.1117887553
  
  Lattice vectors:
  
 A1 = (  -2.5811541393,   1.5324138014,  -0.0027477724)
 A2 = (  -0.0365325771,   3.0015513009,  -0.0027477717)
 A3 = (   2.5954821263,  -4.4955056313, -39.8308767621)


Analysis of symmetry for initial positions (statically):
=====================================================================
 Subroutine PRICEL returns:
 Original cell was already a primitive cell.
 

 Routine SETGRP: Setting up the symmetry group for a 
 base centered monoclinic supercell.


 Subroutine GETGRP returns: Found  2 space group operations
 (whereof  2 operations were pure point group operations)
 out of a pool of  4 trial point group operations.


The static configuration has the point symmetry C_1h.


Analysis of symmetry for dynamics (positions and initial velocities):
=====================================================================
 Subroutine PRICEL returns:
 Original cell was already a primitive cell.
 

 Routine SETGRP: Setting up the symmetry group for a 
 base centered monoclinic supercell.


 Subroutine GETGRP returns: Found  2 space group operations
 (whereof  2 operations were pure point group operations)
 out of a pool of  4 trial point group operations.


The dynamic configuration has the point symmetry C_1h.


Analysis of constrained symmetry for selective dynamics:
=====================================================================
 Subroutine PRICEL returns:
 Original cell was already a primitive cell.
 

 Routine SETGRP: Setting up the symmetry group for a 
 base centered monoclinic supercell.


 Subroutine GETGRP returns: Found  2 space group operations
 (whereof  2 operations were pure point group operations)
 out of a pool of  4 trial point group operations.


The constrained configuration has the point symmetry C_1h.
 
 
 KPOINTS: K-Spacing Value to Generate K-Mesh: 0.02

Automatic generation of k-mesh.
Space group operators:
 irot       det(A)        alpha          n_x          n_y          n_z        tau_x        tau_y        tau_z
    1     1.000000     0.000001     1.000000     0.000000     0.000000     0.000000     0.000000     0.000000
    2    -1.000000   179.999999     0.866025     0.500000     0.000000     0.000000     0.000000     0.000000
 
 Subroutine IBZKPT returns following result:
 ===========================================
 
 Found     49 irreducible k-points:
 
 Following reciprocal coordinates:
            Coordinates               Weight
  0.000000  0.000000  0.000000      1.000000
  0.076923  0.000000  0.000000      4.000000
  0.153846  0.000000  0.000000      4.000000
  0.230769 -0.000000  0.000000      4.000000
  0.307692  0.000000  0.000000      4.000000
  0.384615 -0.000000  0.000000      4.000000
  0.461538 -0.000000  0.000000      4.000000
  0.076923  0.076923  0.000000      2.000000
  0.153846  0.076923  0.000000      4.000000
  0.230769  0.076923  0.000000      4.000000
  0.307692  0.076923 -0.000000      4.000000
  0.384615  0.076923  0.000000      4.000000
  0.461538  0.076923  0.000000      4.000000
 -0.461538  0.076923  0.000000      4.000000
 -0.384615  0.076923  0.000000      4.000000
 -0.307692  0.076923 -0.000000      4.000000
 -0.230769  0.076923  0.000000      4.000000
 -0.153846  0.076923 -0.000000      4.000000
 -0.076923  0.076923  0.000000      2.000000
  0.153846  0.153846 -0.000000      2.000000
  0.230769  0.153846  0.000000      4.000000
  0.307692  0.153846  0.000000      4.000000
  0.384615  0.153846  0.000000      4.000000
  0.461538  0.153846 -0.000000      4.000000
 -0.461538  0.153846 -0.000000      4.000000
 -0.384615  0.153846 -0.000000      4.000000
 -0.307692  0.153846  0.000000      4.000000
 -0.230769  0.153846 -0.000000      4.000000
 -0.153846  0.153846  0.000000      2.000000
  0.230769  0.230769 -0.000000      2.000000
  0.307692  0.230769 -0.000000      4.000000
  0.384615  0.230769  0.000000      4.000000
  0.461538  0.230769  0.000000      4.000000
 -0.461538  0.230769  0.000000      4.000000
 -0.384615  0.230769 -0.000000      4.000000
 -0.307692  0.230769  0.000000      4.000000
 -0.230769  0.230769  0.000000      2.000000
  0.307692  0.307692 -0.000000      2.000000
  0.384615  0.307692  0.000000      4.000000
  0.461538  0.307692  0.000000      4.000000
 -0.461538  0.307692  0.000000      4.000000
 -0.384615  0.307692 -0.000000      4.000000
 -0.307692  0.307692  0.000000      2.000000
  0.384615  0.384615 -0.000000      2.000000
  0.461538  0.384615 -0.000000      4.000000
 -0.461538  0.384615  0.000000      4.000000
 -0.384615  0.384615 -0.000000      2.000000
  0.461538  0.461538 -0.000000      2.000000
 -0.461538  0.461538  0.000000      2.000000
 
 Following cartesian coordinates:
            Coordinates               Weight
  0.000000  0.000000  0.000000      1.000000
  0.030019  0.000365 -0.000016      4.000000
  0.060037  0.000731 -0.000033      4.000000
  0.090056  0.001096 -0.000049      4.000000
  0.120075  0.001461 -0.000066      4.000000
  0.150094  0.001827 -0.000082      4.000000
  0.180112  0.002192 -0.000098      4.000000
  0.045345  0.026180  0.000000      2.000000
  0.075363  0.026545 -0.000016      4.000000
  0.105382  0.026910 -0.000033      4.000000
  0.135401  0.027276 -0.000049      4.000000
  0.165419  0.027641 -0.000066      4.000000
  0.195438  0.028006 -0.000082      4.000000
 -0.164787  0.023622  0.000115      4.000000
 -0.134768  0.023988  0.000098      4.000000
 -0.104749  0.024353  0.000082      4.000000
 -0.074730  0.024718  0.000066      4.000000
 -0.044712  0.025084  0.000049      4.000000
 -0.014693  0.025449  0.000033      2.000000
  0.090689  0.052359  0.000000      2.000000
  0.120708  0.052725 -0.000016      4.000000
  0.150726  0.053090 -0.000033      4.000000
  0.180745  0.053455 -0.000049      4.000000
  0.210764  0.053821 -0.000066      4.000000
 -0.149461  0.049437  0.000131      4.000000
 -0.119442  0.049802  0.000115      4.000000
 -0.089423  0.050167  0.000098      4.000000
 -0.059405  0.050533  0.000082      4.000000
 -0.029386  0.050898  0.000066      2.000000
  0.136034  0.078539  0.000000      2.000000
  0.166052  0.078904 -0.000016      4.000000
  0.196071  0.079270 -0.000033      4.000000
  0.226090  0.079635 -0.000049      4.000000
 -0.134135  0.075251  0.000147      4.000000
 -0.104116  0.075616  0.000131      4.000000
 -0.074098  0.075982  0.000115      4.000000
 -0.044079  0.076347  0.000098      2.000000
  0.181378  0.104719  0.000000      2.000000
  0.211397  0.105084 -0.000016      4.000000
  0.241416  0.105449 -0.000033      4.000000
 -0.118809  0.101065  0.000164      4.000000
 -0.088791  0.101431  0.000147      4.000000
 -0.058772  0.101796  0.000131      2.000000
  0.226723  0.130898  0.000000      2.000000
  0.256741  0.131264 -0.000016      4.000000
 -0.103484  0.126880  0.000180      4.000000
 -0.073465  0.127245  0.000164      2.000000
  0.272067  0.157078  0.000000      2.000000
 -0.088158  0.152694  0.000197      2.000000
 


--------------------------------------------------------------------------------------------------------




 Dimension of arrays:
   k-points           NKPTS =     49   k-points in BZ     NKDIM =     49   number of bands    NBANDS=     64
   number of dos      NEDOS =    301   number of ions     NIONS =     26
   non local maximal  LDIM  =      5   non local SUM 2l+1 LMDIM =     13
   total plane-waves  NPLWV = 172800
   max r-space proj   IRMAX =      1   max aug-charges    IRDMAX= 191835
   dimension x,y,z NGX =    24 NGY =   24 NGZ =  300
   dimension x,y,z NGXF=    48 NGYF=   48 NGZF=  600
   support grid    NGXF=    96 NGYF=   96 NGZF= 1200
   ions per type =              10   9   7
 NGX,Y,Z   is equivalent  to a cutoff of  13.29, 13.29, 12.52 a.u.
 NGXF,Y,Z  is equivalent  to a cutoff of  26.58, 26.58, 25.04 a.u.


 I would recommend the setting:
   dimension x,y,z NGX =    22 NGY =   22 NGZ =  296
 SYSTEM =  unknown system                          
 POSCAR =  OT hollow                               

 Startparameter for this run:
   NWRITE =      2    write-flag & timer
   PREC   = accura    normal or accurate (medium, high low for compatibility)
   ISTART =      0    job   : 0-new  1-cont  2-samecut
   ICHARG =      2    charge: 1-file 2-atom 10-const
   ISPIN  =      1    spin polarized calculation?
   LNONCOLLINEAR =      F non collinear calculations
   LSORBIT =      F    spin-orbit coupling
   INIWAV =      1    electr: 0-lowe 1-rand  2-diag
   LASPH  =      F    aspherical Exc in radial PAW
   METAGGA=      F    non-selfconsistent MetaGGA calc.

 Electronic Relaxation 1
   ENCUT  =  520.0 eV  38.22 Ry    6.18 a.u.   5.58  5.58 74.07*2*pi/ulx,y,z
   ENINI  =  520.0     initial cutoff
   ENAUG  =  605.4 eV  augmentation charge cutoff
   NELM   =    100;   NELMIN=  6; NELMDL=  0     # of ELM steps 
   EDIFF  = 0.1E-04   stopping-criterion for ELM
   LREAL  =      F    real-space projection
   NLSPLINE    = F    spline interpolate recip. space projectors
   LCOMPAT=      F    compatible to vasp.4.4
   GGA_COMPAT  = T    GGA compatible to vasp.4.4-vasp.4.6
   LMAXPAW     = -100 max onsite density
   LMAXMIX     =    2 max onsite mixed and CHGCAR
   VOSKOWN=      0    Vosko Wilk Nusair interpolation
   ROPT   =    0.00000   0.00000   0.00000
 Ionic relaxation
   EDIFFG = -.2E-01   stopping-criterion for IOM
   NSW    =    500    number of steps for IOM
   NBLOCK =      1;   KBLOCK =    500    inner block; outer block 
   IBRION =      2    ionic relax: 0-MD 1-quasi-New 2-CG
   NFREE  =      1    steps in history (QN), initial steepest desc. (CG)
   ISIF   =      2    stress and relaxation
   IWAVPR =     11    prediction:  0-non 1-charg 2-wave 3-comb
   ISYM   =      2    0-nonsym 1-usesym 2-fastsym
   LCORR  =      T    Harris-Foulkes like correction to forces

   POTIM  = 0.5000    time-step for ionic-motion
   TEIN   =    0.0    initial temperature
   TEBEG  =    0.0;   TEEND  =   0.0 temperature during run
   SMASS  =  -3.00    Nose mass-parameter (am)
   estimated Nose-frequenzy (Omega)   =  0.10E-29 period in steps =****** mass=  -0.206E-27a.u.
   SCALEE = 1.0000    scale energy and forces
   NPACO  =    256;   APACO  = 16.0  distance and # of slots for P.C.
   PSTRESS=    0.0 pullay stress

  Mass of Ions in am
   POMASS =  16.00 24.30 26.98
  Ionic Valenz
   ZVAL   =   6.00  2.00  3.00
  Atomic Wigner-Seitz radii
   RWIGS  =  -1.00 -1.00 -1.00
  virtual crystal weights 
   VCA    =   1.00  1.00  1.00
   NELECT =      99.0000    total number of electrons
   NUPDOWN=      -1.0000    fix difference up-down

 DOS related values:
   EMIN   =  10.00;   EMAX   =-10.00  energy-range for DOS
   EFERMI =   0.00
   ISMEAR =     0;   SIGMA  =   0.05  broadening in eV -4-tet -1-fermi 0-gaus

 Electronic relaxation 2 (details)
   IALGO  =     38    algorithm
   LDIAG  =      T    sub-space diagonalisation (order eigenvalues)
   LSUBROT=      F    optimize rotation matrix (better conditioning)
   TURBO    =      0    0=normal 1=particle mesh
   IRESTART =      0    0=no restart 2=restart with 2 vectors
   NREBOOT  =      0    no. of reboots
   NMIN     =      0    reboot dimension
   EREF     =   0.00    reference energy to select bands
   IMIX   =      4    mixing-type and parameters
     AMIX     =   0.40;   BMIX     =  1.00
     AMIX_MAG =   1.60;   BMIX_MAG =  1.00
     AMIN     =   0.01
     WC   =   100.;   INIMIX=   1;  MIXPRE=   1;  MAXMIX= -45

 Intra band minimization:
   WEIMIN = 0.0010     energy-eigenvalue tresh-hold
   EBREAK =  0.39E-07  absolut break condition
   DEPER  =   0.30     relativ break condition  

   TIME   =   0.40     timestep for ELM

  volume/ion in A,a.u.               =      11.78        79.53
  Fermi-wavevector in a.u.,A,eV,Ry     =   1.123372  2.122864 17.170059  1.261964
  Thomas-Fermi vector in A             =   2.260037
 
 Write flags
   LWAVE  =      F    write WAVECAR
   LCHARG =      T    write CHGCAR
   LVTOT  =      F    write LOCPOT, total local potential
   LVHAR  =      F    write LOCPOT, Hartree potential only
   LELF   =      F    write electronic localiz. function (ELF)
   LORBIT =      0    0 simple, 1 ext, 2 COOP (PROOUT)


 Dipole corrections
   LMONO  =      F    monopole corrections only (constant potential shift)
   LDIPOL =      F    correct potential (dipole corrections)
   IDIPOL =      0    1-x, 2-y, 3-z, 4-all directions 
   EPSILON=  1.0000000 bulk dielectric constant

 Exchange correlation treatment:
   GGA     =    --    GGA type
   LEXCH   =     8    internal setting for exchange type
   VOSKOWN=      0    Vosko Wilk Nusair interpolation
   LHFCALC =     F    Hartree Fock is set to
   LHFONE  =     F    Hartree Fock one center treatment
   AEXX    =    0.0000 exact exchange contribution

 Linear response parameters
   LEPSILON=     F    determine dielectric tensor
   LRPA    =     F    only Hartree local field effects (RPA)
   LNABLA  =     F    use nabla operator in PAW spheres
   LVEL    =     F    velocity operator in full k-point grid
   LINTERFAST=   F  fast interpolation
   KINTER  =     0    interpolate to denser k-point grid
   CSHIFT  =0.1000    complex shift for real part using Kramers Kronig
   OMEGAMAX=  -1.0    maximum frequency
   DEG_THRESHOLD= 0.2000000E-02 threshold for treating states as degnerate
   RTIME   =    0.100 relaxation time in fs

 Orbital magnetization related:
   ORBITALMAG=     F  switch on orbital magnetization
   LCHIMAG   =     F  perturbation theory with respect to B field
   DQ        =  0.001000  dq finite difference perturbation B field



--------------------------------------------------------------------------------------------------------


 conjugate gradient relaxation of ions
   using selective dynamics as specified on POSCAR
 charge density and potential will be updated during run
 non-spin polarized calculation
 Variant of blocked Davidson
 Davidson routine will perform the subspace rotation
 perform sub-space diagonalisation
    after iterative eigenvector-optimisation
 modified Broyden-mixing scheme, WC =      100.0
 initial mixing is a Kerker type mixing with AMIX =  0.4000 and BMIX =      1.0000
 Hartree-type preconditioning will be used
 using additional bands           14
 reciprocal scheme for non local part
 use partial core corrections
 calculate Harris-corrections to forces 
   (improved forces if not selfconsistent)
 use gradient corrections 
 use of overlap-Matrix (Vanderbilt PP)
 Gauss-broadening in eV      SIGMA  =   0.05


--------------------------------------------------------------------------------------------------------


  energy-cutoff  :      520.00
  volume of cell :      306.40
      direct lattice vectors                 reciprocal lattice vectors
     2.581154139 -1.532413801  0.002747772     0.390243592  0.004749550 -0.000212934
    -0.036532577  3.001551301 -0.002747772     0.199235028  0.335586186  0.000212934
     0.022204590 -0.038459471 39.836372306    -0.000013175  0.000022820  0.025102717

  length of vectors
     3.001775525  3.001774874 39.836397060     0.390272551  0.390272636  0.025102731


 
 k-points in units of 2pi/SCALE and weight: K-Spacing Value to Generate K-Mesh: 0.02
   0.00000000  0.00000000  0.00000000       0.006
   0.03001874  0.00036535 -0.00001638       0.024
   0.06003748  0.00073070 -0.00003276       0.024
   0.09005621  0.00109605 -0.00004914       0.024
   0.12007495  0.00146140 -0.00006552       0.024
   0.15009369  0.00182675 -0.00008190       0.024
   0.18011243  0.00219210 -0.00009828       0.024
   0.04534451  0.02617967  0.00000000       0.012
   0.07536325  0.02654502 -0.00001638       0.024
   0.10538198  0.02691037 -0.00003276       0.024
   0.13540072  0.02727572 -0.00004914       0.024
   0.16541946  0.02764107 -0.00006552       0.024
   0.19543820  0.02800642 -0.00008190       0.024
  -0.16478666  0.02362222  0.00011466       0.024
  -0.13476792  0.02398757  0.00009828       0.024
  -0.10474918  0.02435292  0.00008190       0.024
  -0.07473044  0.02471827  0.00006552       0.024
  -0.04471170  0.02508362  0.00004914       0.024
  -0.01469297  0.02544897  0.00003276       0.012
   0.09068902  0.05235934  0.00000000       0.012
   0.12070776  0.05272469 -0.00001638       0.024
   0.15072649  0.05309004 -0.00003276       0.024
   0.18074523  0.05345539 -0.00004914       0.024
   0.21076397  0.05382074 -0.00006552       0.024
  -0.14946088  0.04943654  0.00013104       0.024
  -0.11944215  0.04980189  0.00011466       0.024
  -0.08942341  0.05016724  0.00009828       0.024
  -0.05940467  0.05053259  0.00008190       0.024
  -0.02938593  0.05089794  0.00006552       0.012
   0.13603353  0.07853902  0.00000000       0.012
   0.16605227  0.07890437 -0.00001638       0.024
   0.19607100  0.07926972 -0.00003276       0.024
   0.22608974  0.07963507 -0.00004914       0.024
  -0.13413511  0.07525087  0.00014742       0.024
  -0.10411637  0.07561622  0.00013104       0.024
  -0.07409764  0.07598157  0.00011466       0.024
  -0.04407890  0.07634692  0.00009828       0.012
   0.18137804  0.10471869  0.00000000       0.012
   0.21139677  0.10508404 -0.00001638       0.024
   0.24141551  0.10544939 -0.00003276       0.024
  -0.11880934  0.10106519  0.00016380       0.024
  -0.08879060  0.10143054  0.00014742       0.024
  -0.05877187  0.10179589  0.00013104       0.012
   0.22672255  0.13089836  0.00000000       0.012
   0.25674128  0.13126371 -0.00001638       0.024
  -0.10348357  0.12687951  0.00018018       0.024
  -0.07346483  0.12724486  0.00016380       0.012
   0.27206706  0.15707803  0.00000000       0.012
  -0.08815780  0.15269383  0.00019655       0.012
 
 k-points in reciprocal lattice and weights: K-Spacing Value to Generate K-Mesh: 0.02
   0.00000000  0.00000000  0.00000000       0.006
   0.07692308  0.00000000  0.00000000       0.024
   0.15384615  0.00000000  0.00000000       0.024
   0.23076923 -0.00000000  0.00000000       0.024
   0.30769231  0.00000000  0.00000000       0.024
   0.38461538 -0.00000000  0.00000000       0.024
   0.46153846 -0.00000000  0.00000000       0.024
   0.07692308  0.07692308  0.00000000       0.012
   0.15384615  0.07692308  0.00000000       0.024
   0.23076923  0.07692308  0.00000000       0.024
   0.30769231  0.07692308 -0.00000000       0.024
   0.38461538  0.07692308  0.00000000       0.024
   0.46153846  0.07692308  0.00000000       0.024
  -0.46153846  0.07692308  0.00000000       0.024
  -0.38461538  0.07692308  0.00000000       0.024
  -0.30769231  0.07692308 -0.00000000       0.024
  -0.23076923  0.07692308  0.00000000       0.024
  -0.15384615  0.07692308 -0.00000000       0.024
  -0.07692308  0.07692308  0.00000000       0.012
   0.15384615  0.15384615 -0.00000000       0.012
   0.23076923  0.15384615  0.00000000       0.024
   0.30769231  0.15384615  0.00000000       0.024
   0.38461538  0.15384615  0.00000000       0.024
   0.46153846  0.15384615 -0.00000000       0.024
  -0.46153846  0.15384615 -0.00000000       0.024
  -0.38461538  0.15384615 -0.00000000       0.024
  -0.30769231  0.15384615  0.00000000       0.024
  -0.23076923  0.15384615 -0.00000000       0.024
  -0.15384615  0.15384615  0.00000000       0.012
   0.23076923  0.23076923 -0.00000000       0.012
   0.30769231  0.23076923 -0.00000000       0.024
   0.38461538  0.23076923  0.00000000       0.024
   0.46153846  0.23076923  0.00000000       0.024
  -0.46153846  0.23076923  0.00000000       0.024
  -0.38461538  0.23076923 -0.00000000       0.024
  -0.30769231  0.23076923  0.00000000       0.024
  -0.23076923  0.23076923  0.00000000       0.012
   0.30769231  0.30769231 -0.00000000       0.012
   0.38461538  0.30769231  0.00000000       0.024
   0.46153846  0.30769231  0.00000000       0.024
  -0.46153846  0.30769231  0.00000000       0.024
  -0.38461538  0.30769231 -0.00000000       0.024
  -0.30769231  0.30769231  0.00000000       0.012
   0.38461538  0.38461538 -0.00000000       0.012
   0.46153846  0.38461538 -0.00000000       0.024
  -0.46153846  0.38461538  0.00000000       0.024
  -0.38461538  0.38461538 -0.00000000       0.012
   0.46153846  0.46153846 -0.00000000       0.012
  -0.46153846  0.46153846  0.00000000       0.012
 
 position of ions in fractional coordinates (direct lattice) 
   0.50443655  0.49556345  0.24103931
   0.50566627  0.49433373  0.43094850
   0.49433514  0.50566486  0.62111823
   0.49556330  0.50443670  0.81105286
   0.84681641  0.15318359  0.30416375
   0.17612084  0.82387916  0.36754630
   0.83522328  0.16477672  0.49435006
   0.16478828  0.83521172  0.55771356
   0.82385800  0.17614200  0.68452684
   0.15316927  0.84683073  0.74792165
   0.51139814  0.48860186  0.33583532
   0.49998239  0.50001761  0.52604316
   0.48859669  0.51140331  0.71623884
   0.18313947  0.81686053  0.27246407
   0.84085938  0.15914062  0.39923250
   0.17037416  0.82962584  0.46264349
   0.82959476  0.17040524  0.58944096
   0.15911986  0.84088014  0.65284126
   0.81683575  0.18316425  0.77959212
   0.00003257  0.99996743  0.02603867
   0.98941328  0.01058672  0.20365907
   0.67984707  0.32015293  0.14563683
   0.33061444  0.66938556  0.08560591
   0.01059066  0.98940934  0.84840226
   0.66943775  0.33056225  0.96647387
   0.32018631  0.67981369  0.90643764
 
 position of ions in cartesian coordinates  (Angst):
   1.28927646  0.70518333  9.60215592
   1.29671233  0.69230404 17.16745593
   1.27127362  0.73636516 24.74306595
   1.27870598  0.72349195 32.30937920
   2.18692133 -0.84958275 12.11868620
   0.43265782  2.18888992 14.63993152
   2.16079715 -0.80433435 19.69495522
   0.40721532  2.23295761 22.21544278
   2.13526920 -0.76011866 27.27084581
   0.38102387  2.27832252 29.79257914
   1.30960462  0.66997395 13.37852334
   1.28394526  0.71441724 20.95565096
   1.25836428  0.75872479 28.53229458
   0.44891914  2.16072450 10.85223892
   2.17343865 -0.82623006 15.90584790
   0.41972640  2.21128780 18.42822698
   2.14817489 -0.78247196 23.48300075
   0.39448944  2.25499948 26.00495399
   2.11899803 -0.73193617 31.05786323
  -0.03586915  3.00040222  1.03453849
   2.55796359 -1.49224660  8.11572797
   1.74632788 -0.08645272  5.80263130
   0.83081330  1.49926461  3.40929786
   0.01002886  2.92090454 33.79457869
   1.73730588 -0.07082616 38.50174396
   0.82174195  1.51497663 36.10819893
 


--------------------------------------------------------------------------------------------------------


 k-point  1 :   0.0000 0.0000 0.0000  plane waves:    8381
 k-point  2 :   0.0769 0.0000 0.0000  plane waves:    8371
 k-point  3 :   0.1538 0.0000 0.0000  plane waves:    8330
 k-point  4 :   0.2308-0.0000 0.0000  plane waves:    8261
 k-point  5 :   0.3077 0.0000 0.0000  plane waves:    8266
 k-point  6 :   0.3846-0.0000 0.0000  plane waves:    8231
 k-point  7 :   0.4615-0.0000 0.0000  plane waves:    8183
 k-point  8 :   0.0769 0.0769 0.0000  plane waves:    8341
 k-point  9 :   0.1538 0.0769 0.0000  plane waves:    8279
 k-point 10 :   0.2308 0.0769 0.0000  plane waves:    8259
 k-point 11 :   0.3077 0.0769-0.0000  plane waves:    8231
 k-point 12 :   0.3846 0.0769 0.0000  plane waves:    8180
 k-point 13 :   0.4615 0.0769 0.0000  plane waves:    8184
 k-point 14 :  -0.4615 0.0769 0.0000  plane waves:    8231
 k-point 15 :  -0.3846 0.0769 0.0000  plane waves:    8241
 k-point 16 :  -0.3077 0.0769-0.0000  plane waves:    8288
 k-point 17 :  -0.2308 0.0769 0.0000  plane waves:    8297
 k-point 18 :  -0.1538 0.0769-0.0000  plane waves:    8347
 k-point 19 :  -0.0769 0.0769 0.0000  plane waves:    8363
 k-point 20 :   0.1538 0.1538-0.0000  plane waves:    8233
 k-point 21 :   0.2308 0.1538 0.0000  plane waves:    8248
 k-point 22 :   0.3077 0.1538 0.0000  plane waves:    8207
 k-point 23 :   0.3846 0.1538 0.0000  plane waves:    8197
 k-point 24 :   0.4615 0.1538-0.0000  plane waves:    8179
 k-point 25 :  -0.4615 0.1538-0.0000  plane waves:    8249
 k-point 26 :  -0.3846 0.1538-0.0000  plane waves:    8262
 k-point 27 :  -0.3077 0.1538 0.0000  plane waves:    8282
 k-point 28 :  -0.2308 0.1538-0.0000  plane waves:    8335
 k-point 29 :  -0.1538 0.1538 0.0000  plane waves:    8354
 k-point 30 :   0.2308 0.2308-0.0000  plane waves:    8221
 k-point 31 :   0.3077 0.2308-0.0000  plane waves:    8215
 k-point 32 :   0.3846 0.2308 0.0000  plane waves:    8219
 k-point 33 :   0.4615 0.2308 0.0000  plane waves:    8219
 k-point 34 :  -0.4615 0.2308 0.0000  plane waves:    8260
 k-point 35 :  -0.3846 0.2308-0.0000  plane waves:    8250
 k-point 36 :  -0.3077 0.2308 0.0000  plane waves:    8277
 k-point 37 :  -0.2308 0.2308 0.0000  plane waves:    8312
 k-point 38 :   0.3077 0.3077-0.0000  plane waves:    8226
 k-point 39 :   0.3846 0.3077 0.0000  plane waves:    8231
 k-point 40 :   0.4615 0.3077 0.0000  plane waves:    8238
 k-point 41 :  -0.4615 0.3077 0.0000  plane waves:    8244
 k-point 42 :  -0.3846 0.3077-0.0000  plane waves:    8220
 k-point 43 :  -0.3077 0.3077 0.0000  plane waves:    8242
 k-point 44 :   0.3846 0.3846-0.0000  plane waves:    8230
 k-point 45 :   0.4615 0.3846-0.0000  plane waves:    8209
 k-point 46 :  -0.4615 0.3846 0.0000  plane waves:    8199
 k-point 47 :  -0.3846 0.3846-0.0000  plane waves:    8195
 k-point 48 :   0.4615 0.4615-0.0000  plane waves:    8206
 k-point 49 :  -0.4615 0.4615 0.0000  plane waves:    8161

 maximum and minimum number of plane-waves per node :      2109     2029

 maximum number of plane-waves:      8381
 maximum index in each direction: 
   IXMAX=    6   IYMAX=    5   IZMAX=   74
   IXMIN=   -6   IYMIN=   -6   IZMIN=  -74

 WARNING: aliasing errors must be expected set NGX to  26 to avoid them
 NGY is ok and might be reduce to  24
 NGZ is ok and might be reduce to 298
 aliasing errors are usually negligible using standard VASP settings
 and one can safely disregard these warnings

 parallel 3D FFT for wavefunctions:
    minimum data exchange during FFTs selected (reduces bandwidth)
 parallel 3D FFT for charge:
    minimum data exchange during FFTs selected (reduces bandwidth)


 total amount of memory used by VASP on root node   188778. kBytes
========================================================================

   base      :      30000. kBytes
   nonl-proj :      32570. kBytes
   fftplans  :      51728. kBytes
   grid      :      20736. kBytes
   one-center:         56. kBytes
   wavefun   :      53688. kBytes
 
     INWAV:  cpu time    0.00: real time    0.00
 Broyden mixing: mesh for mixing (old mesh)
   NGX = 11   NGY = 11   NGZ =149
  (NGX  = 48   NGY  = 48   NGZ  =600)
  gives a total of  18029 points

 initial charge density was supplied:
 charge density of overlapping atoms calculated
 number of electron      99.0000000 magnetization 
 keeping initial charge density in first step


--------------------------------------------------------------------------------------------------------


 Maximum index for augmentation-charges        23239 (set IRDMAX)


--------------------------------------------------------------------------------------------------------


 First call to EWALD:  gamma=   0.263
 Maximum number of real-space cells 6x 6x 1
 Maximum number of reciprocal cells 1x 1x14

 FEWALD executed in parallel
    FEWALD:  cpu time    0.00: real time    0.00


----------------------------------------- Iteration    1(   1)  ---------------------------------------


    POTLOK:  cpu time    0.09: real time    0.10
    SETDIJ:  cpu time    0.09: real time    0.09
     EDDAV:  cpu time    9.45: real time    9.48
       DOS:  cpu time    0.00: real time    0.00
    --------------------------------------------
      LOOP:  cpu time    9.65: real time    9.67

 eigenvalue-minimisations  :  6304
 total energy-change (2. order) : 0.5038848E+03  (-0.4469053E+04)
 number of electron      99.0000000 magnetization 
 augmentation part       99.0000000 magnetization 

 Free energy of the ion-electron system (eV)
  ---------------------------------------------------
  alpha Z        PSCENC =       137.73362565
  Ewald energy   TEWEN  =      8105.80579862
  -Hartree energ DENC   =    -13316.23374808
  -exchange      EXHF   =         0.00000000
  -V(xc)+E(xc)   XCENC  =      -341.80369407
  PAW double counting   =      4516.65612620    -3844.19644948
  entropy T*S    EENTRO =        -0.00750726
  eigenvalues    EBANDS =       340.24985624
  atomic energy  EATOM  =      4905.68083858
  ---------------------------------------------------
  free energy    TOTEN  =       503.88484640 eV

  energy without entropy =      503.89235365  energy(sigma->0) =      503.88860002


--------------------------------------------------------------------------------------------------------




----------------------------------------- Iteration    1(   2)  ---------------------------------------


     EDDAV:  cpu time   11.30: real time   11.31
       DOS:  cpu time    0.00: real time    0.00
    --------------------------------------------
      LOOP:  cpu time   11.30: real time   11.31

 eigenvalue-minimisations  :  8096
 total energy-change (2. order) :-0.6073478E+03  (-0.5801905E+03)
 number of electron      99.0000000 magnetization 
 augmentation part       99.0000000 magnetization 

 Free energy of the ion-electron system (eV)
  ---------------------------------------------------
  alpha Z        PSCENC =       137.73362565
  Ewald energy   TEWEN  =      8105.80579862
  -Hartree energ DENC   =    -13316.23374808
  -exchange      EXHF   =         0.00000000
  -V(xc)+E(xc)   XCENC  =      -341.80369407
  PAW double counting   =      4516.65612620    -3844.19644948
  entropy T*S    EENTRO =        -0.00397323
  eigenvalues    EBANDS =      -267.10148676
  atomic energy  EATOM  =      4905.68083858
  ---------------------------------------------------
  free energy    TOTEN  =      -103.46296257 eV

  energy without entropy =     -103.45898934  energy(sigma->0) =     -103.46097596


--------------------------------------------------------------------------------------------------------




----------------------------------------- Iteration    1(   3)  ---------------------------------------


     EDDAV:  cpu time   10.54: real time   10.55
       DOS:  cpu time    0.00: real time    0.00
    --------------------------------------------
      LOOP:  cpu time   10.55: real time   10.56

 eigenvalue-minimisations  :  7384
 total energy-change (2. order) :-0.5242561E+02  (-0.5213597E+02)
 number of electron      99.0000000 magnetization 
 augmentation part       99.0000000 magnetization 

 Free energy of the ion-electron system (eV)
  ---------------------------------------------------
  alpha Z        PSCENC =       137.73362565
  Ewald energy   TEWEN  =      8105.80579862
  -Hartree energ DENC   =    -13316.23374808
  -exchange      EXHF   =         0.00000000
  -V(xc)+E(xc)   XCENC  =      -341.80369407
  PAW double counting   =      4516.65612620    -3844.19644948
  entropy T*S    EENTRO =        -0.00512403
  eigenvalues    EBANDS =      -319.52594284
  atomic energy  EATOM  =      4905.68083858
  ---------------------------------------------------
  free energy    TOTEN  =      -155.88856945 eV

  energy without entropy =     -155.88344542  energy(sigma->0) =     -155.88600744


--------------------------------------------------------------------------------------------------------




----------------------------------------- Iteration    1(   4)  ---------------------------------------


     EDDAV:  cpu time   10.50: real time   10.51
       DOS:  cpu time    0.00: real time    0.00
    --------------------------------------------
      LOOP:  cpu time   10.51: real time   10.52

 eigenvalue-minimisations  :  7368
 total energy-change (2. order) :-0.6341855E+00  (-0.6331058E+00)
 number of electron      99.0000000 magnetization 
 augmentation part       99.0000000 magnetization 

 Free energy of the ion-electron system (eV)
  ---------------------------------------------------
  alpha Z        PSCENC =       137.73362565
  Ewald energy   TEWEN  =      8105.80579862
  -Hartree energ DENC   =    -13316.23374808
  -exchange      EXHF   =         0.00000000
  -V(xc)+E(xc)   XCENC  =      -341.80369407
  PAW double counting   =      4516.65612620    -3844.19644948
  entropy T*S    EENTRO =        -0.00482946
  eigenvalues    EBANDS =      -320.16042295
  atomic energy  EATOM  =      4905.68083858
  ---------------------------------------------------
  free energy    TOTEN  =      -156.52275499 eV

  energy without entropy =     -156.51792553  energy(sigma->0) =     -156.52034026


--------------------------------------------------------------------------------------------------------




----------------------------------------- Iteration    1(   5)  ---------------------------------------


     EDDAV:  cpu time   10.69: real time   10.70
       DOS:  cpu time    0.00: real time    0.00
    CHARGE:  cpu time    0.70: real time    0.70
    MIXING:  cpu time    0.00: real time    0.00
    --------------------------------------------
      LOOP:  cpu time   11.40: real time   11.41

 eigenvalue-minimisations  :  7504
 total energy-change (2. order) :-0.9137926E-02  (-0.9133975E-02)
 number of electron      99.0000001 magnetization 
 augmentation part        7.7184021 magnetization 

 Broyden mixing:
  rms(total) = 0.22936E+01    rms(broyden)= 0.22931E+01
  rms(prec ) = 0.23538E+01
  weight for this iteration     100.00

 Free energy of the ion-electron system (eV)
  ---------------------------------------------------
  alpha Z        PSCENC =       137.73362565
  Ewald energy   TEWEN  =      8105.80579862
  -Hartree energ DENC   =    -13316.23374808
  -exchange      EXHF   =         0.00000000
  -V(xc)+E(xc)   XCENC  =      -341.80369407
  PAW double counting   =      4516.65612620    -3844.19644948
  entropy T*S    EENTRO =        -0.00481022
  eigenvalues    EBANDS =      -320.16958011
  atomic energy  EATOM  =      4905.68083858
  ---------------------------------------------------
  free energy    TOTEN  =      -156.53189291 eV

  energy without entropy =     -156.52708269  energy(sigma->0) =     -156.52948780


--------------------------------------------------------------------------------------------------------




----------------------------------------- Iteration    1(   6)  ---------------------------------------


    POTLOK:  cpu time    0.09: real time    0.09
    SETDIJ:  cpu time    0.10: real time    0.10
     EDDAV:  cpu time   10.68: real time   10.70
       DOS:  cpu time    0.00: real time    0.00
    CHARGE:  cpu time    0.69: real time    0.69
    MIXING:  cpu time    0.00: real time    0.00
    --------------------------------------------
      LOOP:  cpu time   11.57: real time   11.58

 eigenvalue-minimisations  :  7584
 total energy-change (2. order) : 0.1537053E+02  (-0.8716588E+01)
 number of electron      99.0000001 magnetization 
 augmentation part        6.2372833 magnetization 

 Broyden mixing:
  rms(total) = 0.78626E+00    rms(broyden)= 0.78534E+00
  rms(prec ) = 0.79681E+00
  weight for this iteration     100.00

 eigenvalues of (default mixing * dielectric matrix)
  average eigenvalue GAMMA=   0.8392
  0.8392

 Free energy of the ion-electron system (eV)
  ---------------------------------------------------
  alpha Z        PSCENC =       137.73362565
  Ewald energy   TEWEN  =      8105.80579862
  -Hartree energ DENC   =    -13504.84186678
  -exchange      EXHF   =         0.00000000
  -V(xc)+E(xc)   XCENC  =      -328.60777467
  PAW double counting   =      5372.06026222    -4703.00077033
  entropy T*S    EENTRO =        -0.00320323
  eigenvalues    EBANDS =      -125.98827443
  atomic energy  EATOM  =      4905.68083858
  ---------------------------------------------------
  free energy    TOTEN  =      -141.16136437 eV

  energy without entropy =     -141.15816114  energy(sigma->0) =     -141.15976276


--------------------------------------------------------------------------------------------------------




----------------------------------------- Iteration    1(   7)  ---------------------------------------


    POTLOK:  cpu time    0.09: real time    0.09
    SETDIJ:  cpu time    0.09: real time    0.09
     EDDAV:  cpu time   10.06: real time   10.07
       DOS:  cpu time    0.00: real time    0.00
    CHARGE:  cpu time    0.71: real time    0.71
    MIXING:  cpu time    0.00: real time    0.00
    --------------------------------------------
      LOOP:  cpu time   10.96: real time   10.97

 eigenvalue-minimisations  :  7072
 total energy-change (2. order) : 0.1234069E+00  (-0.2089763E+00)
 number of electron      99.0000001 magnetization 
 augmentation part        6.2726799 magnetization 

 Broyden mixing:
  rms(total) = 0.47845E+00    rms(broyden)= 0.47843E+00
  rms(prec ) = 0.48423E+00
  weight for this iteration     100.00

 eigenvalues of (default mixing * dielectric matrix)
  average eigenvalue GAMMA=   1.5511
  0.9869  2.1153

 Free energy of the ion-electron system (eV)
  ---------------------------------------------------
  alpha Z        PSCENC =       137.73362565
  Ewald energy   TEWEN  =      8105.80579862
  -Hartree energ DENC   =    -13499.70544216
  -exchange      EXHF   =         0.00000000
  -V(xc)+E(xc)   XCENC  =      -328.33631359
  PAW double counting   =      5700.93738093    -5031.40948693
  entropy T*S    EENTRO =        -0.00527175
  eigenvalues    EBANDS =      -131.73908683
  atomic energy  EATOM  =      4905.68083858
  ---------------------------------------------------
  free energy    TOTEN  =      -141.03795746 eV

  energy without entropy =     -141.03268571  energy(sigma->0) =     -141.03532158


--------------------------------------------------------------------------------------------------------




----------------------------------------- Iteration    1(   8)  ---------------------------------------


    POTLOK:  cpu time    0.10: real time    0.10
    SETDIJ:  cpu time    0.10: real time    0.10
     EDDAV:  cpu time   10.39: real time   10.40
       DOS:  cpu time    0.00: real time    0.00
    CHARGE:  cpu time    0.71: real time    0.71
    MIXING:  cpu time    0.00: real time    0.00
    --------------------------------------------
      LOOP:  cpu time   11.31: real time   11.32

 eigenvalue-minimisations  :  7344
 total energy-change (2. order) : 0.7437925E-01  (-0.7840219E-01)
 number of electron      99.0000001 magnetization 
 augmentation part        6.3412427 magnetization 

 Broyden mixing:
  rms(total) = 0.12748E+00    rms(broyden)= 0.12742E+00
  rms(prec ) = 0.13523E+00
  weight for this iteration     100.00

 eigenvalues of (default mixing * dielectric matrix)
  average eigenvalue GAMMA=   1.3398
  2.2875  0.8659  0.8659

 Free energy of the ion-electron system (eV)
  ---------------------------------------------------
  alpha Z        PSCENC =       137.73362565
  Ewald energy   TEWEN  =      8105.80579862
  -Hartree energ DENC   =    -13502.04158332
  -exchange      EXHF   =         0.00000000
  -V(xc)+E(xc)   XCENC  =      -327.13135586
  PAW double counting   =      6182.51668668    -5512.62644642
  entropy T*S    EENTRO =        -0.00455781
  eigenvalues    EBANDS =      -130.89658432
  atomic energy  EATOM  =      4905.68083858
  ---------------------------------------------------
  free energy    TOTEN  =      -140.96357821 eV

  energy without entropy =     -140.95902039  energy(sigma->0) =     -140.96129930


--------------------------------------------------------------------------------------------------------




----------------------------------------- Iteration    1(   9)  ---------------------------------------


    POTLOK:  cpu time    0.10: real time    0.10
    SETDIJ:  cpu time    0.10: real time    0.10
     EDDAV:  cpu time   10.36: real time   10.38
       DOS:  cpu time    0.00: real time    0.00
    CHARGE:  cpu time    0.70: real time    0.70
    MIXING:  cpu time    0.00: real time    0.00
    --------------------------------------------
      LOOP:  cpu time   11.27: real time   11.29

 eigenvalue-minimisations  :  7216
 total energy-change (2. order) : 0.3470805E-01  (-0.1431529E-01)
 number of electron      99.0000001 magnetization 
 augmentation part        6.3105590 magnetization 

 Broyden mixing:
  rms(total) = 0.61592E-01    rms(broyden)= 0.61585E-01
  rms(prec ) = 0.63171E-01
  weight for this iteration     100.00

 eigenvalues of (default mixing * dielectric matrix)
  average eigenvalue GAMMA=   1.4498
  2.4692  0.9094  0.9094  1.5111

 Free energy of the ion-electron system (eV)
  ---------------------------------------------------
  alpha Z        PSCENC =       137.73362565
  Ewald energy   TEWEN  =      8105.80579862
  -Hartree energ DENC   =    -13506.97523570
  -exchange      EXHF   =         0.00000000
  -V(xc)+E(xc)   XCENC  =      -326.62173852
  PAW double counting   =      6221.84586004    -5552.01803745
  entropy T*S    EENTRO =        -0.00489674
  eigenvalues    EBANDS =      -126.37508463
  atomic energy  EATOM  =      4905.68083858
  ---------------------------------------------------
  free energy    TOTEN  =      -140.92887016 eV

  energy without entropy =     -140.92397341  energy(sigma->0) =     -140.92642179


--------------------------------------------------------------------------------------------------------




----------------------------------------- Iteration    1(  10)  ---------------------------------------


    POTLOK:  cpu time    0.10: real time    0.10
    SETDIJ:  cpu time    0.10: real time    0.10
     EDDAV:  cpu time   10.35: real time   10.36
       DOS:  cpu time    0.00: real time    0.00
    CHARGE:  cpu time    0.69: real time    0.70
    MIXING:  cpu time    0.00: real time    0.00
    --------------------------------------------
      LOOP:  cpu time   11.25: real time   11.26

 eigenvalue-minimisations  :  7208
 total energy-change (2. order) :-0.3724447E-02  (-0.1107916E-01)
 number of electron      99.0000001 magnetization 
 augmentation part        6.2832356 magnetization 

 Broyden mixing:
  rms(total) = 0.45977E-01    rms(broyden)= 0.45942E-01
  rms(prec ) = 0.49891E-01
  weight for this iteration     100.00

 eigenvalues of (default mixing * dielectric matrix)
  average eigenvalue GAMMA=   1.2994
  2.5110  1.5150  0.9716  0.7498  0.7498

 Free energy of the ion-electron system (eV)
  ---------------------------------------------------
  alpha Z        PSCENC =       137.73362565
  Ewald energy   TEWEN  =      8105.80579862
  -Hartree energ DENC   =    -13509.64946562
  -exchange      EXHF   =         0.00000000
  -V(xc)+E(xc)   XCENC  =      -326.29880650
  PAW double counting   =      6207.18907772    -5537.40381212
  entropy T*S    EENTRO =        -0.00480096
  eigenvalues    EBANDS =      -123.98504997
  atomic energy  EATOM  =      4905.68083858
  ---------------------------------------------------
  free energy    TOTEN  =      -140.93259460 eV

  energy without entropy =     -140.92779364  energy(sigma->0) =     -140.93019412


--------------------------------------------------------------------------------------------------------




----------------------------------------- Iteration    1(  11)  ---------------------------------------


    POTLOK:  cpu time    0.09: real time    0.09
    SETDIJ:  cpu time    0.09: real time    0.09
     EDDAV:  cpu time   10.68: real time   10.69
       DOS:  cpu time    0.00: real time    0.00
    CHARGE:  cpu time    0.69: real time    0.69
    MIXING:  cpu time    0.00: real time    0.00
    --------------------------------------------
      LOOP:  cpu time   11.57: real time   11.58

 eigenvalue-minimisations  :  7528
 total energy-change (2. order) : 0.3402985E-02  (-0.1116834E-02)
 number of electron      99.0000001 magnetization 
 augmentation part        6.2905921 magnetization 

 Broyden mixing:
  rms(total) = 0.27899E-01    rms(broyden)= 0.27899E-01
  rms(prec ) = 0.29337E-01
  weight for this iteration     100.00

 eigenvalues of (default mixing * dielectric matrix)
  average eigenvalue GAMMA=   1.3524
  2.5907  1.8010  1.0011  1.0011  1.0381  0.6825

 Free energy of the ion-electron system (eV)
  ---------------------------------------------------
  alpha Z        PSCENC =       137.73362565
  Ewald energy   TEWEN  =      8105.80579862
  -Hartree energ DENC   =    -13508.82717741
  -exchange      EXHF   =         0.00000000
  -V(xc)+E(xc)   XCENC  =      -326.32141453
  PAW double counting   =      6199.82788695    -5530.03403352
  entropy T*S    EENTRO =        -0.00490630
  eigenvalues    EBANDS =      -124.78980966
  atomic energy  EATOM  =      4905.68083858
  ---------------------------------------------------
  free energy    TOTEN  =      -140.92919162 eV

  energy without entropy =     -140.92428532  energy(sigma->0) =     -140.92673847


--------------------------------------------------------------------------------------------------------




----------------------------------------- Iteration    1(  12)  ---------------------------------------


    POTLOK:  cpu time    0.09: real time    0.09
    SETDIJ:  cpu time    0.09: real time    0.09
     EDDAV:  cpu time   10.40: real time   10.41
       DOS:  cpu time    0.00: real time    0.00
    CHARGE:  cpu time    0.70: real time    0.70
    MIXING:  cpu time    0.00: real time    0.00
    --------------------------------------------
      LOOP:  cpu time   11.29: real time   11.30

 eigenvalue-minimisations  :  7256
 total energy-change (2. order) : 0.3189678E-03  (-0.1748819E-02)
 number of electron      99.0000001 magnetization 
 augmentation part        6.2935248 magnetization 

 Broyden mixing:
  rms(total) = 0.16086E-01    rms(broyden)= 0.16070E-01
  rms(prec ) = 0.17362E-01
  weight for this iteration     100.00

 eigenvalues of (default mixing * dielectric matrix)
  average eigenvalue GAMMA=   1.3608
  2.7891  2.4455  0.9045  0.9045  0.9342  0.9342  0.6138

 Free energy of the ion-electron system (eV)
  ---------------------------------------------------
  alpha Z        PSCENC =       137.73362565
  Ewald energy   TEWEN  =      8105.80579862
  -Hartree energ DENC   =    -13508.41776851
  -exchange      EXHF   =         0.00000000
  -V(xc)+E(xc)   XCENC  =      -326.29097949
  PAW double counting   =      6177.41251065    -5507.62656108
  entropy T*S    EENTRO =        -0.00485150
  eigenvalues    EBANDS =      -125.22148558
  atomic energy  EATOM  =      4905.68083858
  ---------------------------------------------------
  free energy    TOTEN  =      -140.92887265 eV

  energy without entropy =     -140.92402115  energy(sigma->0) =     -140.92644690


--------------------------------------------------------------------------------------------------------




----------------------------------------- Iteration    1(  13)  ---------------------------------------


    POTLOK:  cpu time    0.09: real time    0.09
    SETDIJ:  cpu time    0.10: real time    0.10
     EDDAV:  cpu time   11.48: real time   11.49
       DOS:  cpu time    0.00: real time    0.00
    CHARGE:  cpu time    0.69: real time    0.69
    MIXING:  cpu time    0.00: real time    0.00
    --------------------------------------------
      LOOP:  cpu time   12.37: real time   12.39

 eigenvalue-minimisations  :  8328
 total energy-change (2. order) : 0.5264096E-03  (-0.1826365E-03)
 number of electron      99.0000001 magnetization 
 augmentation part        6.2963984 magnetization 

 Broyden mixing:
  rms(total) = 0.88404E-02    rms(broyden)= 0.88395E-02
  rms(prec ) = 0.10391E-01
  weight for this iteration     100.00

 eigenvalues of (default mixing * dielectric matrix)
  average eigenvalue GAMMA=   1.3658
  2.8614  2.4857  0.9588  0.9588  1.1643  0.9273  0.9273  0.6428

 Free energy of the ion-electron system (eV)
  ---------------------------------------------------
  alpha Z        PSCENC =       137.73362565
  Ewald energy   TEWEN  =      8105.80579862
  -Hartree energ DENC   =    -13507.89043487
  -exchange      EXHF   =         0.00000000
  -V(xc)+E(xc)   XCENC  =      -326.29856696
  PAW double counting   =      6162.51164276    -5492.72400212
  entropy T*S    EENTRO =        -0.00486316
  eigenvalues    EBANDS =      -125.74238474
  atomic energy  EATOM  =      4905.68083858
  ---------------------------------------------------
  free energy    TOTEN  =      -140.92834624 eV

  energy without entropy =     -140.92348308  energy(sigma->0) =     -140.92591466


--------------------------------------------------------------------------------------------------------




----------------------------------------- Iteration    1(  14)  ---------------------------------------


    POTLOK:  cpu time    0.10: real time    0.10
    SETDIJ:  cpu time    0.09: real time    0.09
     EDDAV:  cpu time   10.81: real time   10.82
       DOS:  cpu time    0.00: real time    0.00
    CHARGE:  cpu time    0.69: real time    0.69
    MIXING:  cpu time    0.00: real time    0.00
    --------------------------------------------
      LOOP:  cpu time   11.70: real time   11.72

 eigenvalue-minimisations  :  7616
 total energy-change (2. order) : 0.2366518E-03  (-0.1256008E-03)
 number of electron      99.0000001 magnetization 
 augmentation part        6.2963881 magnetization 

 Broyden mixing:
  rms(total) = 0.25923E-02    rms(broyden)= 0.25866E-02
  rms(prec ) = 0.53741E-02
  weight for this iteration     100.00

 eigenvalues of (default mixing * dielectric matrix)
  average eigenvalue GAMMA=   1.3752
  2.9749  2.5576  1.5699  0.8848  0.8848  1.0317  0.9069  0.9069  0.6593

 Free energy of the ion-electron system (eV)
  ---------------------------------------------------
  alpha Z        PSCENC =       137.73362565
  Ewald energy   TEWEN  =      8105.80579862
  -Hartree energ DENC   =    -13507.63653931
  -exchange      EXHF   =         0.00000000
  -V(xc)+E(xc)   XCENC  =      -326.29957157
  PAW double counting   =      6160.88358073    -5491.09573540
  entropy T*S    EENTRO =        -0.00487864
  eigenvalues    EBANDS =      -125.99522825
  atomic energy  EATOM  =      4905.68083858
  ---------------------------------------------------
  free energy    TOTEN  =      -140.92810959 eV

  energy without entropy =     -140.92323095  energy(sigma->0) =     -140.92567027


--------------------------------------------------------------------------------------------------------




----------------------------------------- Iteration    1(  15)  ---------------------------------------


    POTLOK:  cpu time    0.09: real time    0.09
    SETDIJ:  cpu time    0.10: real time    0.10
     EDDAV:  cpu time   12.76: real time   12.78
       DOS:  cpu time    0.00: real time    0.00
    CHARGE:  cpu time    0.70: real time    0.70
    MIXING:  cpu time    0.00: real time    0.00
    --------------------------------------------
      LOOP:  cpu time   13.66: real time   13.67

 eigenvalue-minimisations  :  9480
 total energy-change (2. order) : 0.2499383E-03  (-0.1707819E-04)
 number of electron      99.0000001 magnetization 
 augmentation part        6.2963212 magnetization 

 Broyden mixing:
  rms(total) = 0.18329E-02    rms(broyden)= 0.18321E-02
  rms(prec ) = 0.42090E-02
  weight for this iteration     100.00

 eigenvalues of (default mixing * dielectric matrix)
  average eigenvalue GAMMA=   1.4299
  3.1486  2.6472  2.3843  0.9056  0.9056  0.6533  0.9207  0.9207  0.9066  0.9066

 Free energy of the ion-electron system (eV)
  ---------------------------------------------------
  alpha Z        PSCENC =       137.73362565
  Ewald energy   TEWEN  =      8105.80579862
  -Hartree energ DENC   =    -13507.25146946
  -exchange      EXHF   =         0.00000000
  -V(xc)+E(xc)   XCENC  =      -326.29742705
  PAW double counting   =      6160.50417064    -5490.71583043
  entropy T*S    EENTRO =        -0.00488802
  eigenvalues    EBANDS =      -126.38267818
  atomic energy  EATOM  =      4905.68083858
  ---------------------------------------------------
  free energy    TOTEN  =      -140.92785965 eV

  energy without entropy =     -140.92297164  energy(sigma->0) =     -140.92541564


--------------------------------------------------------------------------------------------------------




----------------------------------------- Iteration    1(  16)  ---------------------------------------


    POTLOK:  cpu time    0.09: real time    0.09
    SETDIJ:  cpu time    0.10: real time    0.10
     EDDAV:  cpu time   10.59: real time   10.60
       DOS:  cpu time    0.00: real time    0.00
    CHARGE:  cpu time    0.70: real time    0.70
    MIXING:  cpu time    0.00: real time    0.00
    --------------------------------------------
      LOOP:  cpu time   11.48: real time   11.50

 eigenvalue-minimisations  :  7448
 total energy-change (2. order) : 0.1805729E-03  (-0.1626656E-04)
 number of electron      99.0000001 magnetization 
 augmentation part        6.2958005 magnetization 

 Broyden mixing:
  rms(total) = 0.18931E-02    rms(broyden)= 0.18926E-02
  rms(prec ) = 0.36132E-02
  weight for this iteration     100.00

 eigenvalues of (default mixing * dielectric matrix)
  average eigenvalue GAMMA=   1.5359
  3.7450  2.8181  2.4214  1.4600  0.9174  0.9174  1.1398  0.9914  0.9143  0.9143
  0.6560

 Free energy of the ion-electron system (eV)
  ---------------------------------------------------
  alpha Z        PSCENC =       137.73362565
  Ewald energy   TEWEN  =      8105.80579862
  -Hartree energ DENC   =    -13506.94994720
  -exchange      EXHF   =         0.00000000
  -V(xc)+E(xc)   XCENC  =      -326.29177105
  PAW double counting   =      6162.82145033    -5493.03343423
  entropy T*S    EENTRO =        -0.00489719
  eigenvalues    EBANDS =      -126.68934259
  atomic energy  EATOM  =      4905.68083858
  ---------------------------------------------------
  free energy    TOTEN  =      -140.92767908 eV

  energy without entropy =     -140.92278189  energy(sigma->0) =     -140.92523049


--------------------------------------------------------------------------------------------------------




----------------------------------------- Iteration    1(  17)  ---------------------------------------


    POTLOK:  cpu time    0.09: real time    0.09
    SETDIJ:  cpu time    0.10: real time    0.10
     EDDAV:  cpu time   11.95: real time   11.96
       DOS:  cpu time    0.00: real time    0.00
    CHARGE:  cpu time    0.72: real time    0.72
    MIXING:  cpu time    0.00: real time    0.00
    --------------------------------------------
      LOOP:  cpu time   12.87: real time   12.88

 eigenvalue-minimisations  :  8960
 total energy-change (2. order) : 0.1772086E-03  (-0.1874306E-04)
 number of electron      99.0000001 magnetization 
 augmentation part        6.2959952 magnetization 

 Broyden mixing:
  rms(total) = 0.26002E-02    rms(broyden)= 0.25998E-02
  rms(prec ) = 0.34903E-02
  weight for this iteration     100.00

 eigenvalues of (default mixing * dielectric matrix)
  average eigenvalue GAMMA=   1.5720
  3.9275  3.0951  2.5264  2.3062  0.9201  0.9201  0.6548  0.9061  0.9276  0.9276
  0.8764  0.8764

 Free energy of the ion-electron system (eV)
  ---------------------------------------------------
  alpha Z        PSCENC =       137.73362565
  Ewald energy   TEWEN  =      8105.80579862
  -Hartree energ DENC   =    -13506.41613945
  -exchange      EXHF   =         0.00000000
  -V(xc)+E(xc)   XCENC  =      -326.29171678
  PAW double counting   =      6163.30577887    -5493.51725411
  entropy T*S    EENTRO =        -0.00490472
  eigenvalues    EBANDS =      -127.22352854
  atomic energy  EATOM  =      4905.68083858
  ---------------------------------------------------
  free energy    TOTEN  =      -140.92750187 eV

  energy without entropy =     -140.92259715  energy(sigma->0) =     -140.92504951


--------------------------------------------------------------------------------------------------------




----------------------------------------- Iteration    1(  18)  ---------------------------------------


    POTLOK:  cpu time    0.10: real time    0.10
    SETDIJ:  cpu time    0.11: real time    0.11
     EDDAV:  cpu time   11.81: real time   11.83
       DOS:  cpu time    0.00: real time    0.00
    CHARGE:  cpu time    0.70: real time    0.70
    MIXING:  cpu time    0.00: real time    0.00
    --------------------------------------------
      LOOP:  cpu time   12.73: real time   12.75

 eigenvalue-minimisations  :  8592
 total energy-change (2. order) : 0.9520088E-04  (-0.1927483E-04)
 number of electron      99.0000001 magnetization 
 augmentation part        6.2960782 magnetization 

 Broyden mixing:
  rms(total) = 0.22653E-02    rms(broyden)= 0.22651E-02
  rms(prec ) = 0.28767E-02
  weight for this iteration     100.00

 eigenvalues of (default mixing * dielectric matrix)
  average eigenvalue GAMMA=   1.4952
  4.0511  3.1622  2.5371  2.3081  0.9215  0.9215  0.9288  0.9288  0.9209  0.8458
  0.8458  0.6550  0.4116

 Free energy of the ion-electron system (eV)
  ---------------------------------------------------
  alpha Z        PSCENC =       137.73362565
  Ewald energy   TEWEN  =      8105.80579862
  -Hartree energ DENC   =    -13506.06592626
  -exchange      EXHF   =         0.00000000
  -V(xc)+E(xc)   XCENC  =      -326.29064680
  PAW double counting   =      6163.52124171    -5493.73251333
  entropy T*S    EENTRO =        -0.00491267
  eigenvalues    EBANDS =      -127.57491216
  atomic energy  EATOM  =      4905.68083858
  ---------------------------------------------------
  free energy    TOTEN  =      -140.92740667 eV

  energy without entropy =     -140.92249400  energy(sigma->0) =     -140.92495033


--------------------------------------------------------------------------------------------------------




----------------------------------------- Iteration    1(  19)  ---------------------------------------


    POTLOK:  cpu time    0.09: real time    0.09
    SETDIJ:  cpu time    0.10: real time    0.10
     EDDAV:  cpu time   11.19: real time   11.20
       DOS:  cpu time    0.00: real time    0.00
    CHARGE:  cpu time    0.69: real time    0.69
    MIXING:  cpu time    0.01: real time    0.01
    --------------------------------------------
      LOOP:  cpu time   12.08: real time   12.09

 eigenvalue-minimisations  :  8008
 total energy-change (2. order) : 0.5224630E-04  (-0.3147566E-04)
 number of electron      99.0000001 magnetization 
 augmentation part        6.2957638 magnetization 

 Broyden mixing:
  rms(total) = 0.17532E-02    rms(broyden)= 0.17519E-02
  rms(prec ) = 0.22344E-02
  weight for this iteration     100.00

 eigenvalues of (default mixing * dielectric matrix)
  average eigenvalue GAMMA=   1.6527
  5.7779  3.1542  2.5549  2.5549  0.9983  0.9983  0.9140  0.9140  0.6548  0.9831
  0.9831  0.8484  0.9013  0.9013

 Free energy of the ion-electron system (eV)
  ---------------------------------------------------
  alpha Z        PSCENC =       137.73362565
  Ewald energy   TEWEN  =      8105.80579862
  -Hartree energ DENC   =    -13505.86441797
  -exchange      EXHF   =         0.00000000
  -V(xc)+E(xc)   XCENC  =      -326.28937605
  PAW double counting   =      6163.74092814    -5493.95270239
  entropy T*S    EENTRO =        -0.00491978
  eigenvalues    EBANDS =      -127.77712924
  atomic energy  EATOM  =      4905.68083858
  ---------------------------------------------------
  free energy    TOTEN  =      -140.92735442 eV

  energy without entropy =     -140.92243465  energy(sigma->0) =     -140.92489453


--------------------------------------------------------------------------------------------------------




----------------------------------------- Iteration    1(  20)  ---------------------------------------


    POTLOK:  cpu time    0.09: real time    0.09
    SETDIJ:  cpu time    0.10: real time    0.10
     EDDAV:  cpu time   12.09: real time   12.11
       DOS:  cpu time    0.00: real time    0.00
    CHARGE:  cpu time    0.70: real time    0.71
    MIXING:  cpu time    0.01: real time    0.01
    --------------------------------------------
      LOOP:  cpu time   13.00: real time   13.01

 eigenvalue-minimisations  :  8872
 total energy-change (2. order) : 0.4846669E-04  (-0.9312477E-05)
 number of electron      99.0000001 magnetization 
 augmentation part        6.2959880 magnetization 

 Broyden mixing:
  rms(total) = 0.14410E-02    rms(broyden)= 0.14407E-02
  rms(prec ) = 0.17145E-02
  weight for this iteration     100.00

 eigenvalues of (default mixing * dielectric matrix)
  average eigenvalue GAMMA=   1.6824
  6.7707  3.0417  2.6878  2.4634  1.2306  1.2306  0.9182  0.9182  1.0348  1.0348
  0.9101  0.9101  0.9067  0.6550  0.5238

 Free energy of the ion-electron system (eV)
  ---------------------------------------------------
  alpha Z        PSCENC =       137.73362565
  Ewald energy   TEWEN  =      8105.80579862
  -Hartree energ DENC   =    -13505.58970108
  -exchange      EXHF   =         0.00000000
  -V(xc)+E(xc)   XCENC  =      -326.29139501
  PAW double counting   =      6163.17172094    -5493.38351814
  entropy T*S    EENTRO =        -0.00492094
  eigenvalues    EBANDS =      -128.04975458
  atomic energy  EATOM  =      4905.68083858
  ---------------------------------------------------
  free energy    TOTEN  =      -140.92730596 eV

  energy without entropy =     -140.92238501  energy(sigma->0) =     -140.92484548


--------------------------------------------------------------------------------------------------------




----------------------------------------- Iteration    1(  21)  ---------------------------------------


    POTLOK:  cpu time    0.10: real time    0.10
    SETDIJ:  cpu time    0.10: real time    0.10
     EDDAV:  cpu time   10.04: real time   10.05
       DOS:  cpu time    0.00: real time    0.00
    CHARGE:  cpu time    0.69: real time    0.69
    MIXING:  cpu time    0.01: real time    0.01
    --------------------------------------------
      LOOP:  cpu time   10.94: real time   10.95

 eigenvalue-minimisations  :  6992
 total energy-change (2. order) : 0.2065950E-04  (-0.7942065E-05)
 number of electron      99.0000001 magnetization 
 augmentation part        6.2961012 magnetization 

 Broyden mixing:
  rms(total) = 0.84933E-03    rms(broyden)= 0.84910E-03
  rms(prec ) = 0.10645E-02
  weight for this iteration     100.00

 eigenvalues of (default mixing * dielectric matrix)
  average eigenvalue GAMMA=   1.6891
  6.9219  3.4200  2.6983  2.3595  1.4381  1.4381  0.9196  0.9196  1.2497  0.9432
  0.9432  0.8928  0.8928  0.6552  0.6671  0.6671

 Free energy of the ion-electron system (eV)
  ---------------------------------------------------
  alpha Z        PSCENC =       137.73362565
  Ewald energy   TEWEN  =      8105.80579862
  -Hartree energ DENC   =    -13505.43415724
  -exchange      EXHF   =         0.00000000
  -V(xc)+E(xc)   XCENC  =      -326.29105609
  PAW double counting   =      6163.18147591    -5493.39311624
  entropy T*S    EENTRO =        -0.00492229
  eigenvalues    EBANDS =      -128.20577220
  atomic energy  EATOM  =      4905.68083858
  ---------------------------------------------------
  free energy    TOTEN  =      -140.92728530 eV

[...]
 k-point    47 :      -0.3846    0.3846   -0.0000
  band No.  band energies     occupation 
      1     -13.0711      2.00000
      2     -13.0708      2.00000
      3     -12.9414      2.00000
      4     -12.8974      2.00000
      5     -12.8314      2.00000
      6     -12.7559      2.00000
      7     -12.6788      2.00000
      8     -12.6081      2.00000
      9     -12.5505      2.00000
     10     -12.5068      2.00000
     11      -0.9752      2.00000
     12      -0.9397      2.00000
     13      -0.8526      2.00000
     14      -0.7371      2.00000
     15      -0.6185      2.00000
     16      -0.5950      2.00000
     17      -0.4776      2.00000
     18      -0.4099      2.00000
     19      -0.3398      2.00000
     20      -0.2259      2.00000
     21      -0.1059      2.00000
     22       0.0085      2.00000
     23       0.1917      2.00000
     24       0.4803      2.00000
     25       0.7410      2.00000
     26       1.0507      2.00000
     27       1.2586      2.00000
     28       1.5260      2.00000
     29       1.7506      2.00000
     30       1.8550      2.00000
     31       1.9312      2.00000
     32       1.9724      2.00000
     33       1.9733      2.00000
     34       2.1821      2.00000
     35       2.2331      2.00000
     36       2.2450      2.00000
     37       2.2813      2.00000
     38       2.3578      2.00000
     39       2.4486      2.00000
     40       2.4730      2.00000
     41       2.5442      2.00000
     42       2.6340      2.00000
     43       2.7081      2.00000
     44       2.7631      2.00000
     45       3.2885      2.00000
     46       4.5470      2.00000
     47       4.6461      2.00000
     48       4.9543      2.00000
     49       5.4609      2.00000
     50       6.3681      2.00000
     51       6.5960      2.00000
     52       7.6939      0.00000
     53       8.0144      0.00000
     54       8.9994      0.00000
     55       9.6505      0.00000
     56      10.3509      0.00000
     57      10.8981      0.00000
     58      10.9629      0.00000
     59      11.2445      0.00000
     60      11.4567      0.00000
     61      11.7777      0.00000
     62      12.0576      0.00000
     63      12.2469      0.00000
     64      12.3931      0.00000

 k-point    48 :       0.4615    0.4615   -0.0000
  band No.  band energies     occupation 
      1     -12.9119      2.00000
      2     -12.9109      2.00000
      3     -12.7095      2.00000
      4     -12.6939      2.00000
      5     -12.6657      2.00000
      6     -12.6313      2.00000
      7     -12.5944      2.00000
      8     -12.5592      2.00000
      9     -12.5292      2.00000
     10     -12.5032      2.00000
     11      -1.2323      2.00000
     12      -1.1531      2.00000
     13      -1.0140      2.00000
     14      -0.8342      2.00000
     15      -0.7381      2.00000
     16      -0.6833      2.00000
     17      -0.6451      2.00000
     18      -0.5921      2.00000
     19      -0.5041      2.00000
     20      -0.4988      2.00000
     21       0.5230      2.00000
     22       0.5284      2.00000
     23       1.2071      2.00000
     24       1.2600      2.00000
     25       1.3847      2.00000
     26       1.4697      2.00000
     27       1.6129      2.00000
     28       1.6524      2.00000
     29       1.7201      2.00000
     30       1.8016      2.00000
     31       1.9744      2.00000
     32       2.0033      2.00000
     33       2.0474      2.00000
     34       2.0976      2.00000
     35       2.1232      2.00000
     36       2.1376      2.00000
     37       2.2567      2.00000
     38       2.2840      2.00000
     39       2.3774      2.00000
     40       2.4400      2.00000
     41       2.4473      2.00000
     42       2.5276      2.00000
     43       2.5369      2.00000
     44       2.6537      2.00000
     45       3.0897      2.00000
     46       3.2006      2.00000
     47       3.9689      2.00000
     48       4.0272      2.00000
     49       4.8388      2.00000
     50       5.6534      2.00000
     51       6.3773      2.00000
     52       6.9980      0.00012
     53       7.9377      0.00000
     54       8.5601      0.00000
     55       9.4394      0.00000
     56      10.0979      0.00000
     57      10.5825      0.00000
     58      10.7296      0.00000
     59      11.0413      0.00000
     60      11.2043      0.00000
     61      11.3391      0.00000
     62      11.4922      0.00000
     63      11.8122      0.00000
     64      11.8955      0.00000

 k-point    49 :      -0.4615    0.4615    0.0000
  band No.  band energies     occupation 
      1     -12.9471      2.00000
      2     -12.9461      2.00000
      3     -12.7587      2.00000
      4     -12.7376      2.00000
      5     -12.7016      2.00000
      6     -12.6587      2.00000
      7     -12.6139      2.00000
      8     -12.5720      2.00000
      9     -12.5369      2.00000
     10     -12.5078      2.00000
     11      -1.2566      2.00000
     12      -1.1787      2.00000
     13      -1.0412      2.00000
     14      -0.8639      2.00000
     15      -0.7768      2.00000
     16      -0.7213      2.00000
     17      -0.6779      2.00000
     18      -0.6167      2.00000
     19      -0.5351      2.00000
     20      -0.5105      2.00000
     21       0.4200      2.00000
     22       0.4325      2.00000
     23       1.0505      2.00000
     24       1.2488      2.00000
     25       1.3176      2.00000
     26       1.4843      2.00000
     27       1.5151      2.00000
     28       1.6576      2.00000
     29       1.7253      2.00000
     30       1.7974      2.00000
     31       1.9111      2.00000
     32       1.9120      2.00000
     33       2.1388      2.00000
     34       2.1700      2.00000
     35       2.2182      2.00000
     36       2.2947      2.00000
     37       2.3217      2.00000
     38       2.3855      2.00000
     39       2.4210      2.00000
     40       2.4812      2.00000
     41       2.5710      2.00000
     42       2.6452      2.00000
     43       2.7003      2.00000
     44       2.8384      2.00000
     45       3.2128      2.00000
     46       3.2776      2.00000
     47       3.7991      2.00000
     48       4.2902      2.00000
     49       4.6814      2.00000
     50       5.8382      2.00000
     51       6.0827      2.00000
     52       7.3222      0.00000
     53       7.5248      0.00000
     54       8.8672      0.00000
     55       9.0767      0.00000
     56      10.3057      0.00000
     57      10.5812      0.00000
     58      10.9769      0.00000
     59      11.2348      0.00000
     60      11.4482      0.00000
     61      11.8324      0.00000
     62      11.9929      0.00000
     63      12.2400      0.00000
     64      12.4042      0.00000


--------------------------------------------------------------------------------------------------------


 soft charge-density along one line, spin component           1
         0         1         2         3         4         5         6         7         8         9
 total charge-density along one line
 
 pseudopotential strength for first ion, spin component:           1
 12.133   0.000 -14.759   0.000  -0.001   0.000  -0.001   0.000   0.001   0.000   0.001   0.000   0.001   0.000  -0.001   0.000
-14.759   0.000  17.973   0.000   0.001   0.000   0.001   0.000  -0.001   0.000  -0.002   0.000  -0.001   0.000   0.001   0.000
 -0.001   0.000   0.001   0.000  -8.258   0.000   0.002   0.000  -0.015   0.000   9.877   0.000  -0.003   0.000   0.020   0.000
 -0.001   0.000   0.001   0.000   0.002   0.000  -8.281   0.000  -0.001   0.000  -0.003   0.000   9.907   0.000   0.002   0.000
  0.001   0.000  -0.001   0.000  -0.015   0.000  -0.001   0.000  -8.275   0.000   0.020   0.000   0.002   0.000   9.900   0.000
  0.001   0.000  -0.002   0.000   9.877   0.000  -0.003   0.000   0.020   0.000 -11.648   0.000   0.004   0.000  -0.027   0.000
  0.001   0.000  -0.001   0.000  -0.003   0.000   9.907   0.000   0.002   0.000   0.004   0.000 -11.689   0.000  -0.003   0.000
 -0.001   0.000   0.001   0.000   0.020   0.000   0.002   0.000   9.900   0.000  -0.027   0.000  -0.003   0.000 -11.680   0.000
 total augmentation occupancy for first ion, spin component:           1
  2.565   0.348   0.006   0.013  -0.003   0.002  -0.004  -0.001
  0.348   0.087   0.004   0.000  -0.002   0.001  -0.011  -0.000
  0.006   0.004   2.102   0.004   0.003   0.231  -0.002   0.019
  0.013   0.000   0.004   2.115  -0.002  -0.002   0.259   0.001
 -0.003  -0.002   0.003  -0.002   2.106   0.019   0.001   0.252
  0.002   0.001   0.231  -0.002   0.019   0.030  -0.000   0.004
 -0.004  -0.011  -0.002   0.259   0.001  -0.000   0.039   0.000
 -0.001  -0.000   0.019   0.001   0.252   0.004   0.000   0.034


------------------------ aborting loop because EDIFF is reached ----------------------------------------


    CHARGE:  cpu time    0.70: real time    0.70
    FORLOC:  cpu time    0.03: real time    0.03
    FORNL :  cpu time    5.82: real time    5.82
    STRESS:  cpu time    6.46: real time    6.47
    FORCOR:  cpu time    0.12: real time    0.12
    FORHAR:  cpu time    0.05: real time    0.05
    MIXING:  cpu time    0.00: real time    0.00
    OFIELD:  cpu time    0.00: real time    0.00

  FORCE on cell =-STRESS in cart. coord.  units (eV):
  Direction    XX          YY          ZZ          XY          YZ          ZX
  --------------------------------------------------------------------------------------
  Alpha Z   137.73363   137.73363   137.73363
  Ewald   11386.36068 11331.43750-14016.88131    47.56505   -38.89430    22.45549
  Hartree 13159.23812 13145.25276-12208.68779    12.11158   -19.32528    11.15750
  E(xc)    -414.83721  -414.88644  -414.68291     0.04262     0.10130    -0.05848
  Local  -25774.39235-25710.07011 24999.16526   -55.70436    56.01685   -32.34129
  n-local   -60.54430   -69.89541   -63.61702    -1.79888     0.44210     3.12484
  augment    60.39151    60.60236    59.62710    -0.18263     0.15617    -0.09020
  Kinetic  1509.78332  1508.58349  1494.14102    -6.30350     3.42837    -0.78306
  Fock        0.00000     0.00000     0.00000     0.00000     0.00000     0.00000
  -------------------------------------------------------------------------------------
  Total      -3.73349    -3.77533   -13.20202     0.03624    -0.05800     0.03348
  in kB     -19.52252   -19.74130   -69.03378     0.18948    -0.30327     0.17509
  external pressure =      -36.10 kB  Pullay stress =        0.00 kB


 VOLUME and BASIS-vectors are now :
 -----------------------------------------------------------------------------
  energy-cutoff  :      520.00
  volume of cell :      306.40
      direct lattice vectors                 reciprocal lattice vectors
     2.581154139 -1.532413801  0.002747772     0.390243592  0.004749550 -0.000212934
    -0.036532577  3.001551301 -0.002747772     0.199235028  0.335586186  0.000212934
     0.022204590 -0.038459471 39.836372306    -0.000013175  0.000022820  0.025102717

  length of vectors
     3.001775525  3.001774874 39.836397060     0.390272551  0.390272636  0.025102731


 FORCES acting on ions
    electron-ion (+dipol)            ewald-force                    non-local-force                 convergence-correction
 -----------------------------------------------------------------------------------------------
   -.125E+01 0.217E+01 0.112E+04   0.150E+01 -.260E+01 -.112E+04   -.249E+00 0.431E+00 0.270E+00   0.155E-03 -.269E-03 0.854E-01
   -.197E+00 0.341E+00 0.374E+03   0.196E+00 -.340E+00 -.374E+03   0.684E-03 -.118E-02 -.309E-01   -.313E-04 0.543E-04 0.549E-01
   0.197E+00 -.341E+00 -.374E+03   -.196E+00 0.339E+00 0.374E+03   -.794E-03 0.138E-02 0.204E-01   0.333E-04 -.576E-04 -.493E-01
   0.125E+01 -.217E+01 -.112E+04   -.150E+01 0.260E+01 0.112E+04   0.249E+00 -.431E+00 -.271E+00   -.970E-04 0.168E-03 -.916E-01
   -.342E+00 0.592E+00 0.873E+03   0.362E+00 -.626E+00 -.873E+03   -.196E-01 0.339E-01 0.158E-01   -.471E-04 0.817E-04 0.912E-01
   -.335E+00 0.580E+00 0.624E+03   0.337E+00 -.583E+00 -.624E+03   -.681E-03 0.118E-02 -.196E-01   -.423E-04 0.732E-04 0.812E-01
   -.663E-01 0.115E+00 0.125E+03   0.662E-01 -.115E+00 -.125E+03   0.257E-03 -.446E-03 -.103E-01   0.107E-04 -.185E-04 0.325E-01
   0.652E-01 -.113E+00 -.125E+03   -.646E-01 0.112E+00 0.125E+03   -.533E-03 0.923E-03 -.976E-03   -.230E-04 0.399E-04 -.904E-02
   0.335E+00 -.580E+00 -.624E+03   -.336E+00 0.582E+00 0.624E+03   0.487E-03 -.843E-03 0.243E-01   0.741E-04 -.128E-03 -.916E-01
   0.339E+00 -.588E+00 -.873E+03   -.359E+00 0.621E+00 0.873E+03   0.191E-01 -.331E-01 0.226E-02   0.489E-04 -.847E-04 -.103E+00
   -.138E+00 0.240E+00 0.249E+03   0.137E+00 -.238E+00 -.249E+03   0.136E-02 -.236E-02 -.132E-01   -.172E-04 0.299E-04 0.295E-01
   0.809E-03 -.140E-02 -.282E-01   -.655E-03 0.113E-02 0.268E-01   -.226E-03 0.391E-03 0.878E-04   -.187E-05 0.324E-05 0.432E-02
   0.141E+00 -.243E+00 -.249E+03   -.139E+00 0.241E+00 0.249E+03   -.193E-02 0.335E-02 0.931E-02   0.189E-04 -.328E-04 -.342E-01
   0.723E+00 -.125E+01 0.333E+03   -.434E+00 0.752E+00 -.333E+03   -.291E+00 0.503E+00 -.898E-01   -.162E-04 0.281E-04 0.300E-01
   -.875E-01 0.152E+00 0.166E+03   0.877E-01 -.152E+00 -.166E+03   0.174E-04 -.301E-04 -.446E-02   -.130E-04 0.224E-04 0.228E-01
   -.484E-01 0.839E-01 0.832E+02   0.477E-01 -.827E-01 -.832E+02   0.122E-02 -.211E-02 -.213E-02   -.483E-05 0.837E-05 0.144E-01
   0.500E-01 -.865E-01 -.832E+02   -.490E-01 0.848E-01 0.832E+02   -.164E-02 0.284E-02 0.184E-02   0.195E-05 -.338E-05 -.906E-02
   0.877E-01 -.152E+00 -.166E+03   -.877E-01 0.152E+00 0.166E+03   -.658E-04 0.114E-03 0.735E-02   0.145E-04 -.252E-04 -.241E-01
   -.722E+00 0.125E+01 -.333E+03   0.433E+00 -.750E+00 0.333E+03   0.290E+00 -.503E+00 0.877E-01   0.164E-04 -.284E-04 -.326E-01
   0.546E-04 -.945E-04 -.150E-01   -.439E-04 0.761E-04 0.141E-01   -.175E-04 0.303E-04 0.120E-03   -.543E-06 0.940E-06 0.880E-03
   0.300E+00 -.519E+00 0.607E+03   -.315E+00 0.546E+00 -.611E+03   0.189E-01 -.327E-01 0.445E+01   -.231E-04 0.400E-04 0.344E-01
   -.127E+00 0.220E+00 0.422E+03   0.125E+00 -.217E+00 -.423E+03   0.113E-02 -.196E-02 0.105E+00   -.129E-04 0.223E-04 0.269E-01
   -.212E+00 0.368E+00 0.210E+03   0.157E+00 -.273E+00 -.209E+03   0.542E-01 -.938E-01 -.460E-01   -.821E-05 0.142E-04 0.163E-01
   -.299E+00 0.519E+00 -.607E+03   0.315E+00 -.545E+00 0.611E+03   -.189E-01 0.328E-01 -.445E+01   0.240E-04 -.415E-04 -.372E-01
   0.212E+00 -.368E+00 -.210E+03   -.157E+00 0.273E+00 0.210E+03   -.543E-01 0.940E-01 0.468E-01   0.755E-05 -.131E-04 -.151E-01
   0.127E+00 -.220E+00 -.422E+03   -.125E+00 0.217E+00 0.423E+03   -.111E-02 0.193E-02 -.103E+00   0.133E-04 -.230E-04 -.275E-01
 -----------------------------------------------------------------------------------------------
   0.280E-02 -.485E-02 0.994E-03   0.351E-13 0.226E-13 0.159E-11   -.287E-02 0.498E-02 -.218E-02   0.802E-04 -.139E-03 0.164E-03
 
 
 POSITION                                       TOTAL-FORCE (eV/Angst)
 -----------------------------------------------------------------------------------
      1.29277      0.69914      9.67801         0.000723     -0.001253     -0.004472
      1.29755      0.69085     17.19414        -0.000046      0.000080     -0.012180
      1.27039      0.73790     24.71653         0.000081     -0.000139      0.007285
      1.27527      0.72945     32.23343        -0.000866      0.001500      0.002426
      2.18964     -0.85430     12.17770         0.000527     -0.000912     -0.000188
      0.43431      2.18603     14.68358         0.001129     -0.001955     -0.005306
      2.16099     -0.80466     19.70318         0.000136     -0.000236     -0.001505
      0.40692      2.23346     22.20724         0.000066     -0.000114     -0.002037
      2.13365     -0.75732     27.22718        -0.001069      0.001851      0.007644
      0.37829      2.28306     29.73308        -0.000071      0.000124      0.008782
      1.31189      0.66602     13.43152         0.000424     -0.000734     -0.000089
      1.28398      0.71436     20.95514        -0.000074      0.000129      0.002994
      1.25609      0.76267     28.47970        -0.000689      0.001193     -0.009810
      0.45216      2.15512     10.92021        -0.001848      0.003201      0.005834
      2.17476     -0.82851     15.94173         0.000123     -0.000213      0.005837
      0.42032      2.21027     18.44589         0.000523     -0.000906      0.004350
      2.14765     -0.78156     23.46457        -0.000660      0.001144     -0.001269
      0.39321      2.25722     25.96870        -0.000117      0.000202      0.000336
      2.11584     -0.72647     30.99112         0.001679     -0.002908     -0.010373
     -0.03589      3.00043      1.03440        -0.000008      0.000013      0.000129
      2.55796     -1.49225      8.20142         0.003399     -0.005888      0.009982
      1.75108     -0.09468      5.86291        -0.000483      0.000837      0.007796
      0.83107      1.49882      3.43741        -0.000817      0.001415     -0.013412
      0.01002      2.92092     33.70985        -0.003358      0.005817     -0.008926
      1.73701     -0.07032     38.47327         0.000804     -0.001393      0.013540
      0.81692      1.52334     36.04791         0.000493     -0.000855     -0.007367
 -----------------------------------------------------------------------------------
    total drift:                                0.000006     -0.000011     -0.001020


--------------------------------------------------------------------------------------------------------



  FREE ENERGIE OF THE ION-ELECTRON SYSTEM (eV)
  ---------------------------------------------------
  free  energy   TOTEN  =      -140.94176968 eV

  energy  without entropy=     -140.93770611  energy(sigma->0) =     -140.93973789
 
 d Force = 0.2084312E-03[ 0.916E-04, 0.325E-03]  d Energy = 0.1938430E-03 0.146E-04
 d Force =-0.1137029E+02[-0.114E+02,-0.114E+02]  d Ewald  =-0.1137029E+02 0.281E-06


--------------------------------------------------------------------------------------------------------


    POTLOK:  cpu time    0.18: real time    0.18


--------------------------------------------------------------------------------------------------------


 Conjugate gradient step on ions:
 trial-energy change:   -0.000194  1 .order   -0.000208   -0.000325   -0.000092
  (g-gl).g = 0.384E-03      g.g   = 0.371E-03  gl.gl    = 0.112E-02
 g(Force)  = 0.371E-03   g(Stress)= 0.000E+00 ortho     =-0.443E-04
 gamma     =   0.34351
 trial     =   0.91493
 opt step  =   1.27371  (harmonic =   1.27371) maximal distance =0.00333652
 next E    =  -140.941802   (d E  =  -0.00023)


--------------------------------------------------------------------------------------------------------


  
 reached required accuracy - stopping structural energy minimisation
     LOOP+:  cpu time   70.83: real time   70.91
    4ORBIT:  cpu time    0.00: real time    0.00

 total amount of memory used by VASP on root node   188778. kBytes
========================================================================

   base      :      30000. kBytes
   nonl-proj :      32570. kBytes
   fftplans  :      51728. kBytes
   grid      :      20736. kBytes
   one-center:         56. kBytes
   wavefun   :      53688. kBytes
 
  
  
 General timing and accounting informations for this job:
 ========================================================
  
                  Total CPU time used (sec):     2852.348
                            User time (sec):     2837.337
                          System time (sec):       15.010
                         Elapsed time (sec):     2855.407
  
                   Maximum memory used (kb):      295288.
                   Average memory used (kb):           0.
  
                          Minor page faults:       394870
                          Major page faults:            0
                 Voluntary context switches:          270
