 vasp.5.4.4.18Apr17-6-g9f103f2a35 (build Nov 15 2019 10:10:58) complex          
  
 executed on             LinuxIFC date 2024.09.29  09:17:45
 running on   20 total cores
 distrk:  each k-point on   20 cores,    1 groups
 distr:  one band on NCORES_PER_BAND=   4 cores,    5 groups


--------------------------------------------------------------------------------------------------------


 INCAR:
 POTCAR:    PAW_PBE O 08Apr2002                   
 POTCAR:    PAW_PBE Mg 13Apr2007                  
 POTCAR:    PAW_PBE O 08Apr2002                   
   VRHFIN =O: s2p4                                                              
   LEXCH  = PE                                                                  
   EATOM  =   432.3788 eV,   31.7789 Ry                                         
                                                                                
   TITEL  = PAW_PBE O 08Apr2002                                                 
   LULTRA =        F    use ultrasoft PP ?                                      
   IUNSCR =        1    unscreen: 0-lin 1-nonlin 2-no                           
   RPACOR =    1.200    partial core radius                                     
   POMASS =   16.000; ZVAL   =    6.000    mass and valenz                      
   RCORE  =    1.520    outmost cutoff radius                                   
   RWIGS  =    1.550; RWIGS  =    0.820    wigner-seitz radius (au A)           
   ENMAX  =  400.000; ENMIN  =  300.000 eV                                      
   ICORE  =        2    local potential                                         
   LCOR   =        T    correct aug charges                                     
   LPAW   =        T    paw PP                                                  
   EAUG   =  605.392                                                            
   DEXC   =    0.000                                                            
   RMAX   =    1.553    core radius for proj-oper                               
   RAUG   =    1.300    factor for augmentation sphere                          
   RDEP   =    1.550    radius for radial grids                                 
   RDEPT  =    1.329    core radius for aug-charge                              
                                                                                
   Atomic configuration                                                         
    4 entries                                                                   
     n  l   j            E        occ.                                          
     1  0  0.50      -514.6923   2.0000                                         
     2  0  0.50       -23.9615   2.0000                                         
     2  1  0.50        -9.0305   4.0000                                         
     3  2  1.50        -9.5241   0.0000                                         
   Description                                                                  
     l       E           TYP  RCUT    TYP  RCUT                                 
     0    -23.9615318     23  1.200                                             
     0     -9.5240782     23  1.200                                             
     1     -9.0304911     23  1.520                                             
     1      8.1634956     23  1.520                                             
     2     -9.5240782      7  1.500                                             
  local pseudopotential read in
  partial core-charges read in
  partial kinetic energy density read in
  kinetic energy density of atom read in
  atomic valenz-charges read in
  non local Contribution for L=           0  read in
    real space projection operators read in
  non local Contribution for L=           0  read in
    real space projection operators read in
  non local Contribution for L=           1  read in
    real space projection operators read in
  non local Contribution for L=           1  read in
    real space projection operators read in
    PAW grid and wavefunctions read in
 
   number of l-projection  operators is LMAX  =           4
   number of lm-projection operators is LMMAX =           8
 
 POTCAR:    PAW_PBE Mg 13Apr2007                  
   VRHFIN =Mg: s2p0                                                             
   LEXCH  = PE                                                                  
   EATOM  =    23.0369 eV,    1.6932 Ry                                         
                                                                                
   TITEL  = PAW_PBE Mg 13Apr2007                                                
   LULTRA =        F    use ultrasoft PP ?                                      
   IUNSCR =        1    unscreen: 0-lin 1-nonlin 2-no                           
   RPACOR =    1.500    partial core radius                                     
   POMASS =   24.305; ZVAL   =    2.000    mass and valenz                      
   RCORE  =    2.000    outmost cutoff radius                                   
   RWIGS  =    2.880; RWIGS  =    1.524    wigner-seitz radius (au A)           
   ENMAX  =  200.000; ENMIN  =  100.000 eV                                      
   RCLOC  =    1.506    cutoff for local pot                                    
   LCOR   =        T    correct aug charges                                     
   LPAW   =        T    paw PP                                                  
   EAUG   =  454.734                                                            
   DEXC   =    0.000                                                            
   RMAX   =    2.045    core radius for proj-oper                               
   RAUG   =    1.300    factor for augmentation sphere                          
   RDEP   =    2.025    radius for radial grids                                 
   RDEPT  =    1.942    core radius for aug-charge                              
                                                                                
   Atomic configuration                                                         
    6 entries                                                                   
     n  l   j            E        occ.                                          
     1  0  0.50     -1259.6230   2.0000                                         
     2  0  0.50       -79.8442   2.0000                                         
     2  1  1.50       -46.6121   6.0000                                         
     3  0  0.50        -4.7055   2.0000                                         
     3  1  0.50        -1.3660   0.0000                                         
     3  2  1.50        -1.3606   0.0000                                         
   Description                                                                  
     l       E           TYP  RCUT    TYP  RCUT                                 
     0     -4.7054661     23  2.000                                             
     0     27.2116520     23  2.000                                             
     1      1.3605826     23  2.000                                             
     1     27.2116520     23  2.000                                             
     2     -1.3605826     23  2.000                                             
  local pseudopotential read in
  partial core-charges read in
  partial kinetic energy density read in
  atomic valenz-charges read in
  non local Contribution for L=           0  read in
    real space projection operators read in
  non local Contribution for L=           0  read in
    real space projection operators read in
  non local Contribution for L=           1  read in
    real space projection operators read in
  non local Contribution for L=           1  read in
    real space projection operators read in
  non local Contribution for L=           2  read in
    real space projection operators read in
    PAW grid and wavefunctions read in
 
   number of l-projection  operators is LMAX  =           5
   number of lm-projection operators is LMMAX =          13
 

 ----------------------------------------------------------------------------- 
|                                                                             |
|  ADVICE TO THIS USER RUNNING 'VASP/VAMP'   (HEAR YOUR MASTER'S VOICE ...):  |
|                                                                             |
|      You have a (more or less) 'large supercell' and for larger cells       |
|      it might be more efficient to use real space projection opertators     |
|      So try LREAL= Auto  in the INCAR   file.                               |
|      Mind:          For very  accurate calculation you might also keep the  |
|      reciprocal projection scheme          (i.e. LREAL=.FALSE.)             |
|                                                                             |
 ----------------------------------------------------------------------------- 

  PAW_PBE O 08Apr2002                   :
 energy of atom  1       EATOM= -432.3788
 kinetic energy error for atom=    0.0389 (will be added to EATOM!!)
  PAW_PBE Mg 13Apr2007                  :
 energy of atom  2       EATOM=  -23.0369
 kinetic energy error for atom=    0.0001 (will be added to EATOM!!)
 
 
 POSCAR: Layer (26)                              
  positions in direct lattice
  velocities in cartesian coordinates
 exchange correlation table for  LEXCH =        8
   RHO(1)=    0.500       N(1)  =     2000
   RHO(2)=  100.500       N(2)  =     4000

 VTST: version 3.2, (02/03/18)

 CHAIN: initializing optimizer
 
 OPT: Using VASP Conjugate-Gradient optimizer
 CHAIN: Read ICHAIN            0
 
 POSCAR: Layer (26)                              
  positions in direct lattice
  velocities in cartesian coordinates
 


--------------------------------------------------------------------------------------------------------


 ion  position               nearest neighbor table
   1  0.000  0.000  0.450-  14 2.08  14 2.08  14 2.08
   2  0.333  0.667  0.484-  14 2.12  14 2.12  14 2.12  11 2.14  11 2.14  11 2.14
   3  0.000  0.000  0.556-  17 2.12  17 2.12  17 2.12  15 2.14  15 2.14  15 2.14
   4  0.333  0.667  0.592-  15 2.12  15 2.12  15 2.12  12 2.14  12 2.14  12 2.14
   5  0.000  0.000  0.663-  18 2.12  18 2.12  18 2.12  16 2.14  16 2.14  16 2.14
   6  0.333  0.667  0.699-  16 2.11  16 2.11  16 2.11  13 2.15  13 2.15  13 2.15
   7  0.000  0.000  0.768-  19 1.97  19 1.97  19 1.97
   8  0.667  0.333  0.520-  11 2.12  11 2.12  11 2.12  17 2.14  17 2.14  17 2.14
   9  0.667  0.333  0.627-  12 2.12  12 2.12  12 2.12  18 2.14  18 2.14  18 2.14
  10  0.667  0.333  0.734-  13 2.09  13 2.09  13 2.09  19 2.21  19 2.21  19 2.21
  11  0.000  0.000  0.502-   8 2.12   8 2.12   8 2.12   2 2.14   2 2.14   2 2.14  17 3.01  17 3.01
                            17 3.01  14 3.01  14 3.01  14 3.01
  12  0.000  0.000  0.610-   9 2.12   9 2.12   9 2.12   4 2.14   4 2.14   4 2.14  18 3.01  18 3.01
                            18 3.01  15 3.01  15 3.01  15 3.01
  13  0.000  0.000  0.717-  10 2.09  10 2.09  10 2.09   6 2.15   6 2.15   6 2.15  16 3.01  16 3.01
                            16 3.01  19 3.06  19 3.06  19 3.06
  14  0.667  0.333  0.466-   1 2.08   1 2.08   1 2.08   2 2.12   2 2.12   2 2.12  11 3.01  11 3.01
                            11 3.01
  15  0.667  0.333  0.574-   4 2.12   4 2.12   4 2.12   3 2.14   3 2.14   3 2.14  12 3.01  12 3.01
                            12 3.01  17 3.01  17 3.01  17 3.01
  16  0.667  0.333  0.681-   6 2.11   6 2.11   6 2.11   5 2.14   5 2.14   5 2.14  18 3.01  18 3.01
                            18 3.01  13 3.01  13 3.01  13 3.01
  17  0.333  0.667  0.538-   3 2.12   3 2.12   3 2.12   8 2.14   8 2.14   8 2.14  15 3.01  15 3.01
                            15 3.01  11 3.01  11 3.01  11 3.01
  18  0.333  0.667  0.646-   5 2.12   5 2.12   5 2.12   9 2.14   9 2.14   9 2.14  12 3.01  12 3.01
                            12 3.01  16 3.01  16 3.01  16 3.01
  19  0.333  0.667  0.754-   7 1.97   7 1.97   7 1.97  10 2.21  10 2.21  10 2.21  13 3.06  13 3.06
                            13 3.06
 
  LATTYP: Found a hexagonal cell.
 ALAT       =     3.0106507234
 C/A-ratio  =    22.7565552224
  
  Lattice vectors:
  
 A1 = (   2.6073001451,  -1.5053251248,   0.0000000000)
 A2 = (   0.0000000000,   3.0106502496,   0.0000000000)
 A3 = (  -0.0000000000,   0.0000000000,  68.5120394419)


Analysis of symmetry for initial positions (statically):
=====================================================================
 Subroutine PRICEL returns:
 Original cell was already a primitive cell.
 

 Routine SETGRP: Setting up the symmetry group for a 
 hexagonal supercell.


 Subroutine GETGRP returns: Found  6 space group operations
 (whereof  6 operations were pure point group operations)
 out of a pool of 24 trial point group operations.


The static configuration has the point symmetry C_3v.


Analysis of symmetry for dynamics (positions and initial velocities):
=====================================================================
 Subroutine PRICEL returns:
 Original cell was already a primitive cell.
 

 Routine SETGRP: Setting up the symmetry group for a 
 hexagonal supercell.


 Subroutine GETGRP returns: Found  6 space group operations
 (whereof  6 operations were pure point group operations)
 out of a pool of 24 trial point group operations.


The dynamic configuration has the point symmetry C_3v.


Analysis of constrained symmetry for selective dynamics:
=====================================================================
 Subroutine PRICEL returns:
 Original cell was already a primitive cell.
 

 Routine SETGRP: Setting up the symmetry group for a 
 hexagonal supercell.


 Subroutine GETGRP returns: Found  6 space group operations
 (whereof  6 operations were pure point group operations)
 out of a pool of 24 trial point group operations.


The constrained configuration has the point symmetry C_3v.


 Subroutine INISYM returns: Found  6 space group operations
 (whereof  6 operations are pure point group operations),
 and found     1 'primitive' translations

 
 
 KPOINTS: K-Spacing Value to Generate K-Mesh: 0.02

Automatic generation of k-mesh.
Space group operators:
 irot       det(A)        alpha          n_x          n_y          n_z        tau_x        tau_y        tau_z
    1     1.000000     0.000000     1.000000     0.000000     0.000000     0.000000     0.000000     0.000000
    2     1.000000   120.000000     0.000000     0.000000    -1.000000     0.000000     0.000000     0.000000
    3     1.000000   120.000000    -0.000000     0.000000     1.000000     0.000000     0.000000     0.000000
    4    -1.000000   180.000000    -0.866025     0.500000    -0.000000     0.000000     0.000000     0.000000
    5    -1.000000   179.999999     0.000000     1.000000     0.000000     0.000000     0.000000     0.000000
    6    -1.000000   180.000000    -0.866025    -0.500000    -0.000000     0.000000     0.000000     0.000000
 
 Subroutine IBZKPT returns following result:
 ===========================================
 
 Found     21 irreducible k-points:
 
 Following reciprocal coordinates:
            Coordinates               Weight
  0.000000  0.000000  0.000000      1.000000
  0.076923  0.000000 -0.000000      6.000000
  0.153846  0.000000 -0.000000      6.000000
  0.230769  0.000000  0.000000      6.000000
  0.307692  0.000000 -0.000000      6.000000
  0.384615  0.000000 -0.000000      6.000000
  0.461538  0.000000  0.000000      6.000000
  0.076923  0.076923 -0.000000      6.000000
  0.153846  0.076923 -0.000000     12.000000
  0.230769  0.076923 -0.000000     12.000000
  0.307692  0.076923 -0.000000     12.000000
  0.384615  0.076923  0.000000     12.000000
  0.461538  0.076923 -0.000000      6.000000
  0.153846  0.153846 -0.000000      6.000000
  0.230769  0.153846 -0.000000     12.000000
  0.307692  0.153846 -0.000000     12.000000
  0.384615  0.153846 -0.000000     12.000000
  0.230769  0.230769 -0.000000      6.000000
  0.307692  0.230769  0.000000     12.000000
  0.384615  0.230769  0.000000      6.000000
  0.307692  0.307692 -0.000000      6.000000
 
 Following cartesian coordinates:
            Coordinates               Weight
  0.000000  0.000000  0.000000      1.000000
  0.029503  0.000000  0.000000      6.000000
  0.059006  0.000000  0.000000      6.000000
  0.088509  0.000000  0.000000      6.000000
  0.118012  0.000000  0.000000      6.000000
  0.147515  0.000000  0.000000      6.000000
  0.177018  0.000000  0.000000      6.000000
  0.044254  0.025550  0.000000      6.000000
  0.073757  0.025550  0.000000     12.000000
  0.103260  0.025550  0.000000     12.000000
  0.132763  0.025550  0.000000     12.000000
  0.162266  0.025550  0.000000     12.000000
  0.191769  0.025550  0.000000      6.000000
  0.088509  0.051101  0.000000      6.000000
  0.118012  0.051101  0.000000     12.000000
  0.147515  0.051101  0.000000     12.000000
  0.177018  0.051101  0.000000     12.000000
  0.132763  0.076651  0.000000      6.000000
  0.162266  0.076651  0.000000     12.000000
  0.191769  0.076651  0.000000      6.000000
  0.177018  0.102201  0.000000      6.000000
 


--------------------------------------------------------------------------------------------------------




 Dimension of arrays:
   k-points           NKPTS =     21   k-points in BZ     NKDIM =     21   number of bands    NBANDS=     50
   number of dos      NEDOS =    301   number of ions     NIONS =     19
   non local maximal  LDIM  =      5   non local SUM 2l+1 LMDIM =     13
   total plane-waves  NPLWV = 311040
   max r-space proj   IRMAX =      1   max aug-charges    IRDMAX= 196726
   dimension x,y,z NGX =    24 NGY =   24 NGZ =  540
   dimension x,y,z NGXF=    48 NGYF=   48 NGZF= 1080
   support grid    NGXF=    96 NGYF=   96 NGZF= 2160
   ions per type =              10   9
   NGX,Y,Z   is equivalent  to a cutoff of  13.25, 13.25, 13.10 a.u.
   NGXF,Y,Z  is equivalent  to a cutoff of  26.51, 26.51, 26.21 a.u.

 Based on PREC, I would recommend the following setting:
   dimension x,y,z NGX =    24 NGY =   24 NGZ =  480

 SYSTEM =  unknown system                          
 POSCAR =  Layer (26)                              

 Startparameter for this run:
   NWRITE =      2    write-flag & timer
   PREC   = accura    normal or accurate (medium, high low for compatibility)
   ISTART =      0    job   : 0-new  1-cont  2-samecut
   ICHARG =      2    charge: 1-file 2-atom 10-const
   ISPIN  =      1    spin polarized calculation?
   LNONCOLLINEAR =      F non collinear calculations
   LSORBIT =      F    spin-orbit coupling
   INIWAV =      1    electr: 0-lowe 1-rand  2-diag
   LASPH  =      F    aspherical Exc in radial PAW
   METAGGA=      F    non-selfconsistent MetaGGA calc.

 Electronic Relaxation 1
   ENCUT  =  450.0 eV  33.07 Ry    5.75 a.u.   5.21  5.21118.50*2*pi/ulx,y,z
   ENINI  =  450.0     initial cutoff
   ENAUG  =  605.4 eV  augmentation charge cutoff
   NELM   =    100;   NELMIN=  6; NELMDL=  0     # of ELM steps 
   EDIFF  = 0.1E-05   stopping-criterion for ELM
   LREAL  =      F    real-space projection
   NLSPLINE    = F    spline interpolate recip. space projectors
   LCOMPAT=      F    compatible to vasp.4.4
   GGA_COMPAT  = T    GGA compatible to vasp.4.4-vasp.4.6
   LMAXPAW     = -100 max onsite density
   LMAXMIX     =    2 max onsite mixed and CHGCAR
   VOSKOWN=      0    Vosko Wilk Nusair interpolation
   ROPT   =    0.00000   0.00000
 Ionic relaxation
   EDIFFG = -.2E-01   stopping-criterion for IOM
   NSW    =      0    number of steps for IOM
   NBLOCK =      1;   KBLOCK =      1    inner block; outer block 
   IBRION =     -1    ionic relax: 0-MD 1-quasi-New 2-CG
   NFREE  =      1    steps in history (QN), initial steepest desc. (CG)
   ISIF   =      4    stress and relaxation
   IWAVPR =     10    prediction:  0-non 1-charg 2-wave 3-comb
   ISYM   =      2    0-nonsym 1-usesym 2-fastsym
   LCORR  =      T    Harris-Foulkes like correction to forces

   POTIM  = 0.5000    time-step for ionic-motion
   TEIN   =    0.0    initial temperature
   TEBEG  =    0.0;   TEEND  =   0.0 temperature during run
   SMASS  =  -3.00    Nose mass-parameter (am)
   estimated Nose-frequenzy (Omega)   =  0.10E-29 period in steps =****** mass=  -0.207E-27a.u.
   SCALEE = 1.0000    scale energy and forces
   NPACO  =    256;   APACO  = 16.0  distance and # of slots for P.C.
   PSTRESS=    0.0 pullay stress

  Mass of Ions in am
   POMASS =  16.00 24.30
  Ionic Valenz
   ZVAL   =   6.00  2.00
  Atomic Wigner-Seitz radii
   RWIGS  =  -1.00 -1.00
  virtual crystal weights 
   VCA    =   1.00  1.00
   NELECT =      78.0000    total number of electrons
   NUPDOWN=      -1.0000    fix difference up-down

 DOS related values:
   EMIN   =  10.00;   EMAX   =-10.00  energy-range for DOS
   EFERMI =   0.00
   ISMEAR =     0;   SIGMA  =   0.05  broadening in eV -4-tet -1-fermi 0-gaus

 Electronic relaxation 2 (details)
   IALGO  =     38    algorithm
   LDIAG  =      T    sub-space diagonalisation (order eigenvalues)
   LSUBROT=      F    optimize rotation matrix (better conditioning)
   TURBO    =      0    0=normal 1=particle mesh
   IRESTART =      0    0=no restart 2=restart with 2 vectors
   NREBOOT  =      0    no. of reboots
   NMIN     =      0    reboot dimension
   EREF     =   0.00    reference energy to select bands
   IMIX   =      4    mixing-type and parameters
     AMIX     =   0.40;   BMIX     =  1.00
     AMIX_MAG =   1.60;   BMIX_MAG =  1.00
     AMIN     =   0.01
     WC   =   100.;   INIMIX=   1;  MIXPRE=   1;  MAXMIX= -45

 Intra band minimization:
   WEIMIN = 0.0000     energy-eigenvalue tresh-hold
   EBREAK =  0.50E-08  absolut break condition
   DEPER  =   0.30     relativ break condition  

   TIME   =   0.40     timestep for ELM

  volume/ion in A,a.u.               =      28.31       191.01
  Fermi-wavevector in a.u.,A,eV,Ry     =   0.860136  1.625421 10.066044  0.739833
  Thomas-Fermi vector in A             =   1.977595
 
 Write flags
   LWAVE        =      F    write WAVECAR
   LDOWNSAMPLE  =      F    k-point downsampling of WAVECAR
   LCHARG       =      T    write CHGCAR
   LVTOT        =      F    write LOCPOT, total local potential
   LVHAR        =      F    write LOCPOT, Hartree potential only
   LELF         =      F    write electronic localiz. function (ELF)
   LORBIT       =      0    0 simple, 1 ext, 2 COOP (PROOUT), +10 PAW based schemes


 Dipole corrections
   LMONO  =      F    monopole corrections only (constant potential shift)
   LDIPOL =      F    correct potential (dipole corrections)
   IDIPOL =      0    1-x, 2-y, 3-z, 4-all directions 
   EPSILON=  1.0000000 bulk dielectric constant

 Exchange correlation treatment:
   GGA     =    --    GGA type
   LEXCH   =     8    internal setting for exchange type
   VOSKOWN=      0    Vosko Wilk Nusair interpolation
   LHFCALC =     F    Hartree Fock is set to
   LHFONE  =     F    Hartree Fock one center treatment
   AEXX    =    0.0000 exact exchange contribution

 Linear response parameters
   LEPSILON=     F    determine dielectric tensor
   LRPA    =     F    only Hartree local field effects (RPA)
   LNABLA  =     F    use nabla operator in PAW spheres
   LVEL    =     F    velocity operator in full k-point grid
   LINTERFAST=   F  fast interpolation
   KINTER  =     0    interpolate to denser k-point grid
   CSHIFT  =0.1000    complex shift for real part using Kramers Kronig
   OMEGAMAX=  -1.0    maximum frequency
   DEG_THRESHOLD= 0.2000000E-02 threshold for treating states as degnerate
   RTIME   =   -0.100 relaxation time in fs
  (WPLASMAI=    0.000 imaginary part of plasma frequency in eV, 0.658/RTIME)
   DFIELD  = 0.0000000 0.0000000 0.0000000 field for delta impulse in time
 
 Orbital magnetization related:
   ORBITALMAG=     F  switch on orbital magnetization
   LCHIMAG   =     F  perturbation theory with respect to B field
   DQ        =  0.001000  dq finite difference perturbation B field
   LLRAUG    =     F  two centre corrections for induced B field



--------------------------------------------------------------------------------------------------------


 Static calculation
 charge density and potential will be updated during run
 non-spin polarized calculation
 Variant of blocked Davidson
 Davidson routine will perform the subspace rotation
 perform sub-space diagonalisation
    after iterative eigenvector-optimisation
 modified Broyden-mixing scheme, WC =      100.0
 initial mixing is a Kerker type mixing with AMIX =  0.4000 and BMIX =      1.0000
 Hartree-type preconditioning will be used
 using additional bands           11
 reciprocal scheme for non local part
 use partial core corrections
 calculate Harris-corrections to forces 
   (improved forces if not selfconsistent)
 use gradient corrections 
 use of overlap-Matrix (Vanderbilt PP)
 Gauss-broadening in eV      SIGMA  =   0.05


--------------------------------------------------------------------------------------------------------


  energy-cutoff  :      450.00
  volume of cell :      537.80
      direct lattice vectors                 reciprocal lattice vectors
     2.607300145 -1.505325125  0.000000000     0.383538505  0.000000000  0.000000000
     0.000000000  3.010650250  0.000000000     0.191769253  0.332154158  0.000000000
    -0.000000000  0.000000000 68.512039442     0.000000000  0.000000000  0.014595975

  length of vectors
     3.010650723  3.010650250 68.512039442     0.383538505  0.383538565  0.014595975


 
 k-points in units of 2pi/SCALE and weight: K-Spacing Value to Generate K-Mesh: 0.02
   0.00000000  0.00000000  0.00000000       0.006
   0.02950296  0.00000000  0.00000000       0.036
   0.05900592  0.00000000  0.00000000       0.036
   0.08850889  0.00000000  0.00000000       0.036
   0.11801185  0.00000000  0.00000000       0.036
   0.14751481  0.00000000  0.00000000       0.036
   0.17701777  0.00000000  0.00000000       0.036
   0.04425444  0.02555032  0.00000000       0.036
   0.07375740  0.02555032  0.00000000       0.071
   0.10326037  0.02555032  0.00000000       0.071
   0.13276333  0.02555032  0.00000000       0.071
   0.16226629  0.02555032  0.00000000       0.071
   0.19176925  0.02555032  0.00000000       0.036
   0.08850889  0.05110064  0.00000000       0.036
   0.11801185  0.05110064  0.00000000       0.071
   0.14751481  0.05110064  0.00000000       0.071
   0.17701777  0.05110064  0.00000000       0.071
   0.13276333  0.07665096  0.00000000       0.036
   0.16226629  0.07665096  0.00000000       0.071
   0.19176925  0.07665096  0.00000000       0.036
   0.17701777  0.10220128  0.00000000       0.036
 
 k-points in reciprocal lattice and weights: K-Spacing Value to Generate K-Mesh: 0.02
   0.00000000  0.00000000  0.00000000       0.006
   0.07692308  0.00000000 -0.00000000       0.036
   0.15384615  0.00000000 -0.00000000       0.036
   0.23076923  0.00000000  0.00000000       0.036
   0.30769231  0.00000000 -0.00000000       0.036
   0.38461538  0.00000000 -0.00000000       0.036
   0.46153846  0.00000000  0.00000000       0.036
   0.07692308  0.07692308 -0.00000000       0.036
   0.15384615  0.07692308 -0.00000000       0.071
   0.23076923  0.07692308 -0.00000000       0.071
   0.30769231  0.07692308 -0.00000000       0.071
   0.38461538  0.07692308  0.00000000       0.071
   0.46153846  0.07692308 -0.00000000       0.036
   0.15384615  0.15384615 -0.00000000       0.036
   0.23076923  0.15384615 -0.00000000       0.071
   0.30769231  0.15384615 -0.00000000       0.071
   0.38461538  0.15384615 -0.00000000       0.071
   0.23076923  0.23076923 -0.00000000       0.036
   0.30769231  0.23076923  0.00000000       0.071
   0.38461538  0.23076923  0.00000000       0.036
   0.30769231  0.30769231 -0.00000000       0.036
 
 position of ions in fractional coordinates (direct lattice) 
   0.00000000  0.00000000  0.44969645
   0.33333300  0.66666700  0.48406084
   0.00000000  0.00000000  0.55574965
   0.33333300  0.66666700  0.59157169
   0.00000000  0.00000000  0.66321054
   0.33333300  0.66666700  0.69894487
   0.00000000  0.00000000  0.76750620
   0.66666700  0.33333300  0.51990002
   0.66666700  0.33333300  0.62740417
   0.66666700  0.33333300  0.73419535
   0.00000000  0.00000000  0.50222264
   0.00000000  0.00000000  0.60974723
   0.00000000  0.00000000  0.71737233
   0.66666700  0.33333300  0.46631921
   0.66666700  0.33333300  0.57391416
   0.66666700  0.33333300  0.68142297
   0.33333300  0.66666700  0.53807549
   0.33333300  0.66666700  0.64557943
   0.33333300  0.66666700  0.75406724
 
 position of ions in cartesian coordinates  (Angst):
  -0.00000000  0.00000000 30.80962061
   0.86909918  1.50532663 33.16399569
  -0.00000000  0.00000000 38.07554189
   0.86909918  1.50532663 40.52978274
  -0.00000000  0.00000000 45.43790688
   0.86909918  1.50532663 47.88613874
  -0.00000000  0.00000000 52.58341471
   1.73820097 -0.00000151 35.61941073
   1.73820097 -0.00000151 42.98473958
   1.73820097 -0.00000151 50.30122081
  -0.00000000  0.00000000 34.40829739
  -0.00000000  0.00000000 41.77502640
  -0.00000000  0.00000000 49.14864148
   1.73820097 -0.00000151 31.94847977
   1.73820097 -0.00000151 39.32002941
   1.73820097 -0.00000151 46.68567765
   0.86909918  1.50532663 36.86464935
   0.86909918  1.50532663 44.22996312
   0.86909918  1.50532663 51.66268417
 


--------------------------------------------------------------------------------------------------------


 k-point  1 :   0.0000 0.0000 0.0000  plane waves:   11577
 k-point  2 :   0.0769 0.0000-0.0000  plane waves:   11575
 k-point  3 :   0.1538 0.0000-0.0000  plane waves:   11621
 k-point  4 :   0.2308 0.0000 0.0000  plane waves:   11621
 k-point  5 :   0.3077 0.0000-0.0000  plane waves:   11699
 k-point  6 :   0.3846 0.0000-0.0000  plane waves:   11735
 k-point  7 :   0.4615 0.0000 0.0000  plane waves:   11731
 k-point  8 :   0.0769 0.0769-0.0000  plane waves:   11643
 k-point  9 :   0.1538 0.0769-0.0000  plane waves:   11618
 k-point 10 :   0.2308 0.0769-0.0000  plane waves:   11662
 k-point 11 :   0.3077 0.0769-0.0000  plane waves:   11704
 k-point 12 :   0.3846 0.0769 0.0000  plane waves:   11716
 k-point 13 :   0.4615 0.0769-0.0000  plane waves:   11676
 k-point 14 :   0.1538 0.1538-0.0000  plane waves:   11611
 k-point 15 :   0.2308 0.1538-0.0000  plane waves:   11647
 k-point 16 :   0.3077 0.1538-0.0000  plane waves:   11683
 k-point 17 :   0.3846 0.1538-0.0000  plane waves:   11669
 k-point 18 :   0.2308 0.2308-0.0000  plane waves:   11615
 k-point 19 :   0.3077 0.2308 0.0000  plane waves:   11634
 k-point 20 :   0.3846 0.2308 0.0000  plane waves:   11623
 k-point 21 :   0.3077 0.3077-0.0000  plane waves:   11597

 maximum and minimum number of plane-waves per node :      2960     2868

 maximum number of plane-waves:     11735
 maximum index in each direction: 
   IXMAX=    5   IYMAX=    5   IZMAX=  118
   IXMIN=   -5   IYMIN=   -5   IZMIN= -118


 parallel 3D FFT for wavefunctions:
    minimum data exchange during FFTs selected (reduces bandwidth)
 parallel 3D FFT for charge:
    minimum data exchange during FFTs selected (reduces bandwidth)


 total amount of memory used by VASP MPI-rank0    86941. kBytes
=======================================================================

   base      :      30000. kBytes
   nonl-proj :      13688. kBytes
   fftplans  :      21351. kBytes
   grid      :      11833. kBytes
   one-center:         40. kBytes
   wavefun   :      10029. kBytes
 
     INWAV:  cpu time    0.0000: real time    0.0000
 Broyden mixing: mesh for mixing (old mesh)
   NGX = 11   NGY = 11   NGZ =237
  (NGX  = 48   NGY  = 48   NGZ  =***)
  gives a total of  28677 points

 initial charge density was supplied:
 charge density of overlapping atoms calculated
 number of electron      78.0000000 magnetization 
 keeping initial charge density in first step


--------------------------------------------------------------------------------------------------------


 Maximum index for augmentation-charges        10139 (set IRDMAX)


--------------------------------------------------------------------------------------------------------


 First call to EWALD:  gamma=   0.218
 Maximum number of real-space cells 8x 8x 1
 Maximum number of reciprocal cells 1x 1x20

    FEWALD:  cpu time    0.0013: real time    0.0013


--------------------------------------- Iteration      1(   1)  ---------------------------------------


    POTLOK:  cpu time    0.0635: real time    0.0638
    SETDIJ:  cpu time    0.0928: real time    0.0932
     EDDAV:  cpu time    2.7994: real time    2.8025
       DOS:  cpu time    0.0008: real time    0.0012
    --------------------------------------------
      LOOP:  cpu time    2.9565: real time    2.9607

 eigenvalue-minimisations  :  2320
 total energy-change (2. order) : 0.6823085E+03  (-0.3063496E+04)
 number of electron      78.0000000 magnetization 
 augmentation part       78.0000000 magnetization 

 Free energy of the ion-electron system (eV)
  ---------------------------------------------------
  alpha Z        PSCENC =        62.96259514
  Ewald energy   TEWEN  =    167515.37848618
  -Hartree energ DENC   =   -171474.49590514
  -exchange      EXHF   =         0.00000000
  -V(xc)+E(xc)   XCENC  =      -158.63023502
  PAW double counting   =      4053.25502632    -3604.47710419
  entropy T*S    EENTRO =        -0.00966565
  eigenvalues    EBANDS =      -242.40474166
  atomic energy  EATOM  =      4530.72999957
  Solvation  Ediel_sol  =         0.00000000
  ---------------------------------------------------
  free energy    TOTEN  =       682.30845555 eV

  energy without entropy =      682.31812121  energy(sigma->0) =      682.31328838


--------------------------------------------------------------------------------------------------------




--------------------------------------- Iteration      1(   2)  ---------------------------------------


     EDDAV:  cpu time    3.3827: real time    3.3859
       DOS:  cpu time    0.0007: real time    0.0009
    --------------------------------------------
      LOOP:  cpu time    3.3834: real time    3.3868

 eigenvalue-minimisations  :  2980
 total energy-change (2. order) :-0.6906604E+03  (-0.6698193E+03)
 number of electron      78.0000000 magnetization 
 augmentation part       78.0000000 magnetization 

 Free energy of the ion-electron system (eV)
  ---------------------------------------------------
  alpha Z        PSCENC =        62.96259514
  Ewald energy   TEWEN  =    167515.37848618
  -Hartree energ DENC   =   -171474.49590514
  -exchange      EXHF   =         0.00000000
  -V(xc)+E(xc)   XCENC  =      -158.63023502
  PAW double counting   =      4053.25502632    -3604.47710419
  entropy T*S    EENTRO =        -0.00263047
  eigenvalues    EBANDS =      -933.07216754
  atomic energy  EATOM  =      4530.72999957
  Solvation  Ediel_sol  =         0.00000000
  ---------------------------------------------------
  free energy    TOTEN  =        -8.35193515 eV

  energy without entropy =       -8.34930468  energy(sigma->0) =       -8.35061991


--------------------------------------------------------------------------------------------------------




--------------------------------------- Iteration      1(   3)  ---------------------------------------


     EDDAV:  cpu time    2.9364: real time    2.9392
       DOS:  cpu time    0.0007: real time    0.0007
    --------------------------------------------
      LOOP:  cpu time    2.9371: real time    2.9399

 eigenvalue-minimisations  :  2500
 total energy-change (2. order) :-0.1106170E+03  (-0.1095601E+03)
 number of electron      78.0000000 magnetization 
 augmentation part       78.0000000 magnetization 

 Free energy of the ion-electron system (eV)
  ---------------------------------------------------
  alpha Z        PSCENC =        62.96259514
  Ewald energy   TEWEN  =    167515.37848618
  -Hartree energ DENC   =   -171474.49590514
  -exchange      EXHF   =         0.00000000
  -V(xc)+E(xc)   XCENC  =      -158.63023502
  PAW double counting   =      4053.25502632    -3604.47710419
  entropy T*S    EENTRO =        -0.01462768
  eigenvalues    EBANDS =     -1043.67719522
  atomic energy  EATOM  =      4530.72999957
  Solvation  Ediel_sol  =         0.00000000
  ---------------------------------------------------
  free energy    TOTEN  =      -118.96896004 eV

  energy without entropy =     -118.95433236  energy(sigma->0) =     -118.96164620


--------------------------------------------------------------------------------------------------------




--------------------------------------- Iteration      1(   4)  ---------------------------------------


     EDDAV:  cpu time    2.9445: real time    2.9468
       DOS:  cpu time    0.0010: real time    0.0011
    --------------------------------------------
      LOOP:  cpu time    2.9455: real time    2.9479

 eigenvalue-minimisations  :  2490
 total energy-change (2. order) :-0.2712432E+01  (-0.2704161E+01)
 number of electron      78.0000000 magnetization 
 augmentation part       78.0000000 magnetization 

 Free energy of the ion-electron system (eV)
  ---------------------------------------------------
  alpha Z        PSCENC =        62.96259514
  Ewald energy   TEWEN  =    167515.37848618
  -Hartree energ DENC   =   -171474.49590514
  -exchange      EXHF   =         0.00000000
  -V(xc)+E(xc)   XCENC  =      -158.63023502
  PAW double counting   =      4053.25502632    -3604.47710419
  entropy T*S    EENTRO =        -0.01404719
  eigenvalues    EBANDS =     -1046.39020759
  atomic energy  EATOM  =      4530.72999957
  Solvation  Ediel_sol  =         0.00000000
  ---------------------------------------------------
  free energy    TOTEN  =      -121.68139192 eV

  energy without entropy =     -121.66734473  energy(sigma->0) =     -121.67436833


--------------------------------------------------------------------------------------------------------




--------------------------------------- Iteration      1(   5)  ---------------------------------------


     EDDAV:  cpu time    3.0102: real time    3.0131
       DOS:  cpu time    0.0007: real time    0.0007
    CHARGE:  cpu time    0.2480: real time    0.2482
    MIXING:  cpu time    0.0036: real time    0.0037
    --------------------------------------------
      LOOP:  cpu time    3.2625: real time    3.2657

 eigenvalue-minimisations  :  2630
 total energy-change (2. order) :-0.5996520E-01  (-0.5994984E-01)
 number of electron      78.0000001 magnetization 
 augmentation part        7.7074925 magnetization 

 Broyden mixing:
  rms(total) = 0.22776E+01    rms(broyden)= 0.22768E+01
  rms(prec ) = 0.23556E+01
  weight for this iteration     100.00

 Free energy of the ion-electron system (eV)
  ---------------------------------------------------
  alpha Z        PSCENC =        62.96259514
  Ewald energy   TEWEN  =    167515.37848618
  -Hartree energ DENC   =   -171474.49590514
  -exchange      EXHF   =         0.00000000
  -V(xc)+E(xc)   XCENC  =      -158.63023502
  PAW double counting   =      4053.25502632    -3604.47710419
  entropy T*S    EENTRO =        -0.01403385
  eigenvalues    EBANDS =     -1046.45018615
  atomic energy  EATOM  =      4530.72999957
  Solvation  Ediel_sol  =         0.00000000
  ---------------------------------------------------
  free energy    TOTEN  =      -121.74135713 eV

  energy without entropy =     -121.72732328  energy(sigma->0) =     -121.73434020


--------------------------------------------------------------------------------------------------------




--------------------------------------- Iteration      1(   6)  ---------------------------------------


    POTLOK:  cpu time    0.0586: real time    0.0586
    SETDIJ:  cpu time    0.0900: real time    0.0904
     EDDAV:  cpu time    2.9394: real time    2.9418
       DOS:  cpu time    0.0008: real time    0.0011
    CHARGE:  cpu time    0.2510: real time    0.2512
    MIXING:  cpu time    0.0027: real time    0.0027
    --------------------------------------------
      LOOP:  cpu time    3.3426: real time    3.3458

 eigenvalue-minimisations  :  2510
 total energy-change (2. order) : 0.1756404E+01  (-0.2741443E+02)
 number of electron      78.0000001 magnetization 
 augmentation part        6.5522131 magnetization 

 Broyden mixing:
  rms(total) = 0.17882E+01    rms(broyden)= 0.17871E+01
  rms(prec ) = 0.18927E+01
  weight for this iteration     100.00

 eigenvalues of (default mixing * dielectric matrix)
  average eigenvalue GAMMA=   0.5865
  0.5865

 Free energy of the ion-electron system (eV)
  ---------------------------------------------------
  alpha Z        PSCENC =        62.96259514
  Ewald energy   TEWEN  =    167515.37848618
  -Hartree energ DENC   =   -171644.77319702
  -exchange      EXHF   =         0.00000000
  -V(xc)+E(xc)   XCENC  =      -146.87044200
  PAW double counting   =      4711.88079272    -4266.19702456
  entropy T*S    EENTRO =        -0.01200575
  eigenvalues    EBANDS =      -883.08415767
  atomic energy  EATOM  =      4530.72999957
  Solvation  Ediel_sol  =         0.00000000
  ---------------------------------------------------
  free energy    TOTEN  =      -119.98495340 eV

  energy without entropy =     -119.97294765  energy(sigma->0) =     -119.97895052


--------------------------------------------------------------------------------------------------------




--------------------------------------- Iteration      1(   7)  ---------------------------------------


    POTLOK:  cpu time    0.0616: real time    0.0623
    SETDIJ:  cpu time    0.0905: real time    0.0909
     EDDAV:  cpu time    2.8937: real time    2.8962
       DOS:  cpu time    0.0008: real time    0.0008
    CHARGE:  cpu time    0.2491: real time    0.2493
    MIXING:  cpu time    0.0027: real time    0.0027
    --------------------------------------------
      LOOP:  cpu time    3.2984: real time    3.3020

 eigenvalue-minimisations  :  2470
 total energy-change (2. order) : 0.9952868E+01  (-0.2759286E+01)
 number of electron      78.0000001 magnetization 
 augmentation part        6.4754418 magnetization 

 Broyden mixing:
  rms(total) = 0.11923E+01    rms(broyden)= 0.11918E+01
  rms(prec ) = 0.13108E+01
  weight for this iteration     100.00

 eigenvalues of (default mixing * dielectric matrix)
  average eigenvalue GAMMA=   0.5401
  0.5401  0.5401

 Free energy of the ion-electron system (eV)
  ---------------------------------------------------
  alpha Z        PSCENC =        62.96259514
  Ewald energy   TEWEN  =    167515.37848618
  -Hartree energ DENC   =   -171650.69660126
  -exchange      EXHF   =         0.00000000
  -V(xc)+E(xc)   XCENC  =      -146.31123970
  PAW double counting   =      4852.15605886    -4406.33829526
  entropy T*S    EENTRO =        -0.00749584
  eigenvalues    EBANDS =      -867.90559304
  atomic energy  EATOM  =      4530.72999957
  Solvation  Ediel_sol  =         0.00000000
  ---------------------------------------------------
  free energy    TOTEN  =      -110.03208536 eV

  energy without entropy =     -110.02458952  energy(sigma->0) =     -110.02833744


--------------------------------------------------------------------------------------------------------




--------------------------------------- Iteration      1(   8)  ---------------------------------------


    POTLOK:  cpu time    0.0601: real time    0.0605
    SETDIJ:  cpu time    0.0894: real time    0.0898
     EDDAV:  cpu time    3.4305: real time    3.4334
       DOS:  cpu time    0.0007: real time    0.0007
    CHARGE:  cpu time    0.2493: real time    0.2495
    MIXING:  cpu time    0.0027: real time    0.0026
    --------------------------------------------
      LOOP:  cpu time    3.8326: real time    3.8365

 eigenvalue-minimisations  :  3100
 total energy-change (2. order) : 0.9976349E+00  (-0.3926514E+01)
 number of electron      78.0000001 magnetization 
 augmentation part        6.4681367 magnetization 

 Broyden mixing:
  rms(total) = 0.77192E+00    rms(broyden)= 0.77053E+00
  rms(prec ) = 0.82022E+00
  weight for this iteration     100.00

 eigenvalues of (default mixing * dielectric matrix)
  average eigenvalue GAMMA=   0.5465
  0.7816  0.4290  0.4290

 Free energy of the ion-electron system (eV)
  ---------------------------------------------------
  alpha Z        PSCENC =        62.96259514
  Ewald energy   TEWEN  =    167515.37848618
  -Hartree energ DENC   =   -171642.97168449
  -exchange      EXHF   =         0.00000000
  -V(xc)+E(xc)   XCENC  =      -146.13880483
  PAW double counting   =      4917.70509458    -4471.79955628
  entropy T*S    EENTRO =        -0.01702577
  eigenvalues    EBANDS =      -874.88355457
  atomic energy  EATOM  =      4530.72999957
  Solvation  Ediel_sol  =         0.00000000
  ---------------------------------------------------
  free energy    TOTEN  =      -109.03445047 eV

  energy without entropy =     -109.01742470  energy(sigma->0) =     -109.02593759


--------------------------------------------------------------------------------------------------------




--------------------------------------- Iteration      1(   9)  ---------------------------------------


    POTLOK:  cpu time    0.0590: real time    0.0590
    SETDIJ:  cpu time    0.0892: real time    0.0892
     EDDAV:  cpu time    2.9599: real time    2.9623
       DOS:  cpu time    0.0008: real time    0.0008
    CHARGE:  cpu time    0.2414: real time    0.2416
    MIXING:  cpu time    0.0092: real time    0.0092
    --------------------------------------------
      LOOP:  cpu time    3.3595: real time    3.3621

 eigenvalue-minimisations  :  2550
 total energy-change (2. order) :-0.8103958E+00  (-0.2071118E+01)
 number of electron      78.0000001 magnetization 
 augmentation part        6.4992848 magnetization 

 Broyden mixing:
  rms(total) = 0.10332E+01    rms(broyden)= 0.10323E+01
  rms(prec ) = 0.11785E+01
  weight for this iteration     100.00

 eigenvalues of (default mixing * dielectric matrix)
  average eigenvalue GAMMA=   0.7128
  1.1079  1.1079  0.3178  0.3178

 Free energy of the ion-electron system (eV)
  ---------------------------------------------------
  alpha Z        PSCENC =        62.96259514
  Ewald energy   TEWEN  =    167515.37848618
  -Hartree energ DENC   =   -171646.04182529
  -exchange      EXHF   =         0.00000000
  -V(xc)+E(xc)   XCENC  =      -145.87933278
  PAW double counting   =      5021.78815437    -4575.75584700
  entropy T*S    EENTRO =        -0.01663320
  eigenvalues    EBANDS =      -873.01044322
  atomic energy  EATOM  =      4530.72999957
  Solvation  Ediel_sol  =         0.00000000
  ---------------------------------------------------
  free energy    TOTEN  =      -109.84484623 eV

  energy without entropy =     -109.82821303  energy(sigma->0) =     -109.83652963


--------------------------------------------------------------------------------------------------------




--------------------------------------- Iteration      1(  10)  ---------------------------------------


    POTLOK:  cpu time    0.0597: real time    0.0598
    SETDIJ:  cpu time    0.0898: real time    0.0898
     EDDAV:  cpu time    3.2739: real time    3.2768
       DOS:  cpu time    0.0008: real time    0.0012
    CHARGE:  cpu time    0.2528: real time    0.2530
    MIXING:  cpu time    0.0035: real time    0.0035
    --------------------------------------------
      LOOP:  cpu time    3.6805: real time    3.6840

 eigenvalue-minimisations  :  2910
 total energy-change (2. order) :-0.4557436E+00  (-0.4177813E+01)
 number of electron      78.0000001 magnetization 
 augmentation part        6.5071396 magnetization 

 Broyden mixing:
  rms(total) = 0.94366E+00    rms(broyden)= 0.94300E+00
  rms(prec ) = 0.10856E+01
  weight for this iteration     100.00

 eigenvalues of (default mixing * dielectric matrix)
  average eigenvalue GAMMA=   0.6815
  1.1494  1.1494  0.5274  0.3357  0.2454

 Free energy of the ion-electron system (eV)
  ---------------------------------------------------
  alpha Z        PSCENC =        62.96259514
  Ewald energy   TEWEN  =    167515.37848618
  -Hartree energ DENC   =   -171644.94295121
  -exchange      EXHF   =         0.00000000
  -V(xc)+E(xc)   XCENC  =      -145.69181112
  PAW double counting   =      5092.16207733    -4646.05772294
  entropy T*S    EENTRO =        -0.02018431
  eigenvalues    EBANDS =      -874.82107847
  atomic energy  EATOM  =      4530.72999957
  Solvation  Ediel_sol  =         0.00000000
  ---------------------------------------------------
  free energy    TOTEN  =      -110.30058983 eV

  energy without entropy =     -110.28040552  energy(sigma->0) =     -110.29049768


--------------------------------------------------------------------------------------------------------




--------------------------------------- Iteration      1(  11)  ---------------------------------------


    POTLOK:  cpu time    0.0602: real time    0.0608
    SETDIJ:  cpu time    0.0900: real time    0.0904
     EDDAV:  cpu time    2.9599: real time    2.9623
       DOS:  cpu time    0.0008: real time    0.0008
    CHARGE:  cpu time    0.2475: real time    0.2476
    MIXING:  cpu time    0.0031: real time    0.0031
    --------------------------------------------
      LOOP:  cpu time    3.3615: real time    3.3650

 eigenvalue-minimisations  :  2540
 total energy-change (2. order) : 0.1388761E+01  (-0.8541147E-01)
 number of electron      78.0000001 magnetization 
 augmentation part        6.4922426 magnetization 

 Broyden mixing:
  rms(total) = 0.75565E+00    rms(broyden)= 0.75558E+00
  rms(prec ) = 0.91694E+00
  weight for this iteration     100.00

 eigenvalues of (default mixing * dielectric matrix)
  average eigenvalue GAMMA=   0.8422
  1.9142  1.1678  0.7159  0.7159  0.2695  0.2695

 Free energy of the ion-electron system (eV)
  ---------------------------------------------------
  alpha Z        PSCENC =        62.96259514
  Ewald energy   TEWEN  =    167515.37848618
  -Hartree energ DENC   =   -171652.92239267
  -exchange      EXHF   =         0.00000000
  -V(xc)+E(xc)   XCENC  =      -145.13995543
  PAW double counting   =      5199.08502582    -4752.95647046
  entropy T*S    EENTRO =        -0.01808311
  eigenvalues    EBANDS =      -866.03103371
  atomic energy  EATOM  =      4530.72999957
  Solvation  Ediel_sol  =         0.00000000
  ---------------------------------------------------
  free energy    TOTEN  =      -108.91182866 eV

  energy without entropy =     -108.89374556  energy(sigma->0) =     -108.90278711


--------------------------------------------------------------------------------------------------------




--------------------------------------- Iteration      1(  12)  ---------------------------------------


    POTLOK:  cpu time    0.0602: real time    0.0607
    SETDIJ:  cpu time    0.0893: real time    0.0896
     EDDAV:  cpu time    3.3853: real time    3.3880
       DOS:  cpu time    0.0008: real time    0.0007
    CHARGE:  cpu time    0.2503: real time    0.2504
    MIXING:  cpu time    0.0031: real time    0.0031
    --------------------------------------------
      LOOP:  cpu time    3.7889: real time    3.7927

 eigenvalue-minimisations  :  3050
 total energy-change (2. order) :-0.1996469E+00  (-0.1157131E+00)
 number of electron      78.0000001 magnetization 
 augmentation part        6.5122315 magnetization 

 Broyden mixing:
  rms(total) = 0.89655E+00    rms(broyden)= 0.89624E+00
  rms(prec ) = 0.10438E+01
  weight for this iteration     100.00

 eigenvalues of (default mixing * dielectric matrix)
  average eigenvalue GAMMA=   0.8114
  2.3428  0.9780  0.6810  0.6810  0.2734  0.2734  0.4500

 Free energy of the ion-electron system (eV)
  ---------------------------------------------------
  alpha Z        PSCENC =        62.96259514
  Ewald energy   TEWEN  =    167515.37848618
  -Hartree energ DENC   =   -171653.33977007
  -exchange      EXHF   =         0.00000000
  -V(xc)+E(xc)   XCENC  =      -144.91398630
  PAW double counting   =      5259.73946396    -4813.54477481
  entropy T*S    EENTRO =        -0.01319101
  eigenvalues    EBANDS =      -866.11029826
  atomic energy  EATOM  =      4530.72999957
  Solvation  Ediel_sol  =         0.00000000
  ---------------------------------------------------
  free energy    TOTEN  =      -109.11147560 eV

  energy without entropy =     -109.09828459  energy(sigma->0) =     -109.10488009


--------------------------------------------------------------------------------------------------------




--------------------------------------- Iteration      1(  13)  ---------------------------------------


    POTLOK:  cpu time    0.0617: real time    0.0618
    SETDIJ:  cpu time    0.0894: real time    0.0895
     EDDAV:  cpu time    3.0429: real time    3.0452
       DOS:  cpu time    0.0008: real time    0.0008
    CHARGE:  cpu time    0.2519: real time    0.2521
    MIXING:  cpu time    0.0036: real time    0.0036
    --------------------------------------------
      LOOP:  cpu time    3.4503: real time    3.4529

 eigenvalue-minimisations  :  2650
 total energy-change (2. order) : 0.6889239E+00  (-0.7291375E-01)
 number of electron      78.0000001 magnetization 
 augmentation part        6.4953546 magnetization 

 Broyden mixing:
  rms(total) = 0.43068E+00    rms(broyden)= 0.43007E+00
  rms(prec ) = 0.43881E+00
  weight for this iteration     100.00

 eigenvalues of (default mixing * dielectric matrix)
  average eigenvalue GAMMA=   0.7619
  2.4055  0.9542  0.5507  0.5507  0.5405  0.5405  0.2764  0.2764

 Free energy of the ion-electron system (eV)
  ---------------------------------------------------
  alpha Z        PSCENC =        62.96259514
  Ewald energy   TEWEN  =    167515.37848618
  -Hartree energ DENC   =   -171657.09343887
  -exchange      EXHF   =         0.00000000
  -V(xc)+E(xc)   XCENC  =      -144.72582186
  PAW double counting   =      5284.90988662    -4838.72119975
  entropy T*S    EENTRO =        -0.01290980
  eigenvalues    EBANDS =      -861.85014898
  atomic energy  EATOM  =      4530.72999957
  Solvation  Ediel_sol  =         0.00000000
  ---------------------------------------------------
  free energy    TOTEN  =      -108.42255174 eV

  energy without entropy =     -108.40964194  energy(sigma->0) =     -108.41609684


--------------------------------------------------------------------------------------------------------




--------------------------------------- Iteration      1(  14)  ---------------------------------------


    POTLOK:  cpu time    0.0608: real time    0.0609
    SETDIJ:  cpu time    0.0887: real time    0.0898
     EDDAV:  cpu time    3.3246: real time    3.3275
       DOS:  cpu time    0.0007: real time    0.0007
    CHARGE:  cpu time    0.2459: real time    0.2461
    MIXING:  cpu time    0.0038: real time    0.0038
    --------------------------------------------
      LOOP:  cpu time    3.7246: real time    3.7288

 eigenvalue-minimisations  :  2980
 total energy-change (2. order) :-0.1209811E+00  (-0.2743411E+00)
 number of electron      78.0000001 magnetization 
 augmentation part        6.5020171 magnetization 

 Broyden mixing:
  rms(total) = 0.74653E+00    rms(broyden)= 0.74564E+00
  rms(prec ) = 0.90951E+00
  weight for this iteration     100.00

 eigenvalues of (default mixing * dielectric matrix)
  average eigenvalue GAMMA=   0.7625
  2.4460  0.9852  0.6901  0.6901  0.5877  0.5877  0.2824  0.2824  0.3109

 Free energy of the ion-electron system (eV)
  ---------------------------------------------------
  alpha Z        PSCENC =        62.96259514
  Ewald energy   TEWEN  =    167515.37848618
  -Hartree energ DENC   =   -171656.01260193
  -exchange      EXHF   =         0.00000000
  -V(xc)+E(xc)   XCENC  =      -144.66106144
  PAW double counting   =      5292.99048410    -4846.79032597
  entropy T*S    EENTRO =        -0.02268481
  eigenvalues    EBANDS =      -863.11842362
  atomic energy  EATOM  =      4530.72999957
  Solvation  Ediel_sol  =         0.00000000
  ---------------------------------------------------
  free energy    TOTEN  =      -108.54353279 eV

  energy without entropy =     -108.52084798  energy(sigma->0) =     -108.53219039


--------------------------------------------------------------------------------------------------------




--------------------------------------- Iteration      1(  15)  ---------------------------------------


    POTLOK:  cpu time    0.0615: real time    0.0615
    SETDIJ:  cpu time    0.0896: real time    0.0896
     EDDAV:  cpu time    2.9234: real time    2.9258
       DOS:  cpu time    0.0008: real time    0.0008
    CHARGE:  cpu time    0.2482: real time    0.2484
    MIXING:  cpu time    0.0037: real time    0.0037
    --------------------------------------------
      LOOP:  cpu time    3.3272: real time    3.3298

 eigenvalue-minimisations  :  2510
 total energy-change (2. order) : 0.2585476E+00  (-0.1282299E-01)
 number of electron      78.0000001 magnetization 
 augmentation part        6.4955127 magnetization 

 Broyden mixing:
  rms(total) = 0.37293E+00    rms(broyden)= 0.37246E+00
  rms(prec ) = 0.44821E+00
  weight for this iteration     100.00

 eigenvalues of (default mixing * dielectric matrix)
  average eigenvalue GAMMA=   0.7422
  2.4694  0.8792  0.8792  0.9271  0.5558  0.4649  0.2776  0.2776  0.3455  0.3455

 Free energy of the ion-electron system (eV)
  ---------------------------------------------------
  alpha Z        PSCENC =        62.96259514
  Ewald energy   TEWEN  =    167515.37848618
  -Hartree energ DENC   =   -171656.02986390
  -exchange      EXHF   =         0.00000000
  -V(xc)+E(xc)   XCENC  =      -144.63253106
  PAW double counting   =      5291.40946419    -4845.20521232
  entropy T*S    EENTRO =        -0.02437948
  eigenvalues    EBANDS =      -862.87354350
  atomic energy  EATOM  =      4530.72999957
  Solvation  Ediel_sol  =         0.00000000
  ---------------------------------------------------
  free energy    TOTEN  =      -108.28498517 eV

  energy without entropy =     -108.26060569  energy(sigma->0) =     -108.27279543


--------------------------------------------------------------------------------------------------------




--------------------------------------- Iteration      1(  16)  ---------------------------------------


    POTLOK:  cpu time    0.0610: real time    0.0611
    SETDIJ:  cpu time    0.0904: real time    0.0904
     EDDAV:  cpu time    2.9639: real time    2.9663
       DOS:  cpu time    0.0008: real time    0.0012
    CHARGE:  cpu time    0.2478: real time    0.2480
    MIXING:  cpu time    0.0072: real time    0.0072
    --------------------------------------------
      LOOP:  cpu time    3.3711: real time    3.3742

 eigenvalue-minimisations  :  2540
 total energy-change (2. order) :-0.1378886E+00  (-0.8563461E-02)
 number of electron      78.0000001 magnetization 
 augmentation part        6.5002324 magnetization 

 Broyden mixing:
  rms(total) = 0.69988E+00    rms(broyden)= 0.69950E+00
  rms(prec ) = 0.85925E+00
  weight for this iteration     100.00

 eigenvalues of (default mixing * dielectric matrix)
  average eigenvalue GAMMA=   0.7968
  2.4791  1.0304  1.0304  0.9074  0.6898  0.6898  0.6900  0.4325  0.2801  0.2801
  0.2553

 Free energy of the ion-electron system (eV)
  ---------------------------------------------------
  alpha Z        PSCENC =        62.96259514
  Ewald energy   TEWEN  =    167515.37848618
  -Hartree energ DENC   =   -171656.32815747
  -exchange      EXHF   =         0.00000000
  -V(xc)+E(xc)   XCENC  =      -144.61081726
  PAW double counting   =      5293.21799096    -4847.01610231
  entropy T*S    EENTRO =        -0.02361717
  eigenvalues    EBANDS =      -862.73325138
  atomic energy  EATOM  =      4530.72999957
  Solvation  Ediel_sol  =         0.00000000
  ---------------------------------------------------
  free energy    TOTEN  =      -108.42287374 eV

  energy without entropy =     -108.39925658  energy(sigma->0) =     -108.41106516


--------------------------------------------------------------------------------------------------------




--------------------------------------- Iteration      1(  17)  ---------------------------------------


    POTLOK:  cpu time    0.0625: real time    0.0631
    SETDIJ:  cpu time    0.0905: real time    0.0908
     EDDAV:  cpu time    3.2188: real time    3.2213
       DOS:  cpu time    0.0007: real time    0.0007
    CHARGE:  cpu time    0.2491: real time    0.2493
    MIXING:  cpu time    0.0029: real time    0.0029
    --------------------------------------------
      LOOP:  cpu time    3.6246: real time    3.6283

 eigenvalue-minimisations  :  2840
 total energy-change (2. order) : 0.5456817E-01  (-0.4917005E+00)
 number of electron      78.0000001 magnetization 
 augmentation part        6.4990682 magnetization 

 Broyden mixing:
  rms(total) = 0.58115E+00    rms(broyden)= 0.57951E+00
  rms(prec ) = 0.69730E+00
  weight for this iteration     100.00

 eigenvalues of (default mixing * dielectric matrix)
  average eigenvalue GAMMA=   0.7649
  2.4665  1.5537  0.9472  0.7587  0.7587  0.6214  0.6214  0.2819  0.2819  0.3588
  0.3588  0.1693

 Free energy of the ion-electron system (eV)
  ---------------------------------------------------
  alpha Z        PSCENC =        62.96259514
  Ewald energy   TEWEN  =    167515.37848618
  -Hartree energ DENC   =   -171656.69756869
  -exchange      EXHF   =         0.00000000
  -V(xc)+E(xc)   XCENC  =      -144.56847081
  PAW double counting   =      5286.86500234    -4840.66931612
  entropy T*S    EENTRO =        -0.02212903
  eigenvalues    EBANDS =      -862.34690414
  atomic energy  EATOM  =      4530.72999957
  Solvation  Ediel_sol  =         0.00000000
  ---------------------------------------------------
  free energy    TOTEN  =      -108.36830557 eV

  energy without entropy =     -108.34617654  energy(sigma->0) =     -108.35724106


--------------------------------------------------------------------------------------------------------




--------------------------------------- Iteration      1(  18)  ---------------------------------------


    POTLOK:  cpu time    0.0619: real time    0.0619
    SETDIJ:  cpu time    0.0906: real time    0.0911
     EDDAV:  cpu time    2.9419: real time    2.9444
       DOS:  cpu time    0.0008: real time    0.0008
    CHARGE:  cpu time    0.2494: real time    0.2496
    MIXING:  cpu time    0.0034: real time    0.0034
    --------------------------------------------
      LOOP:  cpu time    3.3480: real time    3.3512

 eigenvalue-minimisations  :  2520
 total energy-change (2. order) : 0.2008987E-01  (-0.1965807E-02)
 number of electron      78.0000001 magnetization 
 augmentation part        6.4951336 magnetization 

 Broyden mixing:
  rms(total) = 0.49734E+00    rms(broyden)= 0.49729E+00
  rms(prec ) = 0.60251E+00
  weight for this iteration     100.00

 eigenvalues of (default mixing * dielectric matrix)
  average eigenvalue GAMMA=   0.8073
  2.5058  1.7654  0.8375  0.8375  0.8646  0.8646  0.4869  0.4869  0.6040  0.4487
  0.2776  0.2776  0.2380

 Free energy of the ion-electron system (eV)
  ---------------------------------------------------
  alpha Z        PSCENC =        62.96259514
  Ewald energy   TEWEN  =    167515.37848618
  -Hartree energ DENC   =   -171657.05042214
  -exchange      EXHF   =         0.00000000
  -V(xc)+E(xc)   XCENC  =      -144.55294630
  PAW double counting   =      5281.63264783    -4835.43810346
  entropy T*S    EENTRO =        -0.02325240
  eigenvalues    EBANDS =      -861.98722011
  atomic energy  EATOM  =      4530.72999957
  Solvation  Ediel_sol  =         0.00000000
  ---------------------------------------------------
  free energy    TOTEN  =      -108.34821570 eV

  energy without entropy =     -108.32496330  energy(sigma->0) =     -108.33658950


--------------------------------------------------------------------------------------------------------




--------------------------------------- Iteration      1(  19)  ---------------------------------------


    POTLOK:  cpu time    0.0611: real time    0.0612
    SETDIJ:  cpu time    0.0917: real time    0.0917
     EDDAV:  cpu time    3.1216: real time    3.1242
       DOS:  cpu time    0.0007: real time    0.0007
    CHARGE:  cpu time    0.2491: real time    0.2492
    MIXING:  cpu time    0.0036: real time    0.0036
    --------------------------------------------
      LOOP:  cpu time    3.5278: real time    3.5306

 eigenvalue-minimisations  :  2740
 total energy-change (2. order) : 0.7587966E-01  (-0.8716369E-02)
 number of electron      78.0000001 magnetization 
 augmentation part        6.4928326 magnetization 

 Broyden mixing:
  rms(total) = 0.30942E+00    rms(broyden)= 0.30919E+00
  rms(prec ) = 0.37983E+00
  weight for this iteration     100.00

 eigenvalues of (default mixing * dielectric matrix)
  average eigenvalue GAMMA=   0.8384
  2.3942  2.3942  0.8965  0.8965  0.9152  0.9152  0.5520  0.5520  0.4986  0.4986
  0.4354  0.2777  0.2777  0.2341

 Free energy of the ion-electron system (eV)
  ---------------------------------------------------
  alpha Z        PSCENC =        62.96259514
  Ewald energy   TEWEN  =    167515.37848618
  -Hartree energ DENC   =   -171657.55732617
  -exchange      EXHF   =         0.00000000
  -V(xc)+E(xc)   XCENC  =      -144.55359500
  PAW double counting   =      5279.26254252    -4833.06359673
  entropy T*S    EENTRO =        -0.01909668
  eigenvalues    EBANDS =      -861.41234487
  atomic energy  EATOM  =      4530.72999957
  Solvation  Ediel_sol  =         0.00000000
  ---------------------------------------------------
  free energy    TOTEN  =      -108.27233605 eV

  energy without entropy =     -108.25323936  energy(sigma->0) =     -108.26278770


--------------------------------------------------------------------------------------------------------




--------------------------------------- Iteration      1(  20)  ---------------------------------------


    POTLOK:  cpu time    0.0611: real time    0.0612
    SETDIJ:  cpu time    0.0921: real time    0.0922
     EDDAV:  cpu time    3.0770: real time    3.0794
       DOS:  cpu time    0.0007: real time    0.0007
    CHARGE:  cpu time    0.2599: real time    0.2601
    MIXING:  cpu time    0.0031: real time    0.0031
    --------------------------------------------
      LOOP:  cpu time    3.4940: real time    3.4968

 eigenvalue-minimisations  :  2700
 total energy-change (2. order) :-0.8021053E-02  (-0.9158273E-03)
 number of electron      78.0000001 magnetization 
 augmentation part        6.4935980 magnetization 

 Broyden mixing:
  rms(total) = 0.33995E+00    rms(broyden)= 0.33995E+00
  rms(prec ) = 0.41837E+00
  weight for this iteration     100.00

 eigenvalues of (default mixing * dielectric matrix)
  average eigenvalue GAMMA=   0.8722
  2.5156  2.5156  1.0147  1.0147  0.9385  0.9385  0.6313  0.6313  0.5297  0.5297
  0.5973  0.4360  0.2775  0.2775  0.2357

 Free energy of the ion-electron system (eV)
  ---------------------------------------------------
  alpha Z        PSCENC =        62.96259514
  Ewald energy   TEWEN  =    167515.37848618
  -Hartree energ DENC   =   -171657.98026727
  -exchange      EXHF   =         0.00000000
  -V(xc)+E(xc)   XCENC  =      -144.56073989
  PAW double counting   =      5276.92735413    -4830.72609152
  entropy T*S    EENTRO =        -0.01755982
  eigenvalues    EBANDS =      -860.99413362
  atomic energy  EATOM  =      4530.72999957
  Solvation  Ediel_sol  =         0.00000000
  ---------------------------------------------------
  free energy    TOTEN  =      -108.28035710 eV

  energy without entropy =     -108.26279728  energy(sigma->0) =     -108.27157719


--------------------------------------------------------------------------------------------------------




--------------------------------------- Iteration      1(  21)  ---------------------------------------


    POTLOK:  cpu time    0.0610: real time    0.0610
    SETDIJ:  cpu time    0.0905: real time    0.0906
     EDDAV:  cpu time    3.1755: real time    3.1780
       DOS:  cpu time    0.0007: real time    0.0007
    CHARGE:  cpu time    0.2491: real time    0.2493
    MIXING:  cpu time    0.0040: real time    0.0040
    --------------------------------------------
      LOOP:  cpu time    3.5808: real time    3.5836

 eigenvalue-minimisations  :  2840
 total energy-change (2. order) : 0.2704196E-01  (-0.1113672E-02)
 number of electron      78.0000001 magnetization 
 augmentation part        6.4926084 magnetization 

 Broyden mixing:
  rms(total) = 0.20849E+00    rms(broyden)= 0.20827E+00
  rms(prec ) = 0.25537E+00
  weight for this iteration     100.00

 eigenvalues of (default mixing * dielectric matrix)
  average eigenvalue GAMMA=   0.8956
  2.7240  2.4083  1.0714  1.0714  1.0479  0.8653  0.8653  0.7807  0.5314  0.5314
  0.6045  0.6045  0.4335  0.2776  0.2776  0.2354

 Free energy of the ion-electron system (eV)
  ---------------------------------------------------
  alpha Z        PSCENC =        62.96259514
  Ewald energy   TEWEN  =    167515.37848618
  -Hartree energ DENC   =   -171658.36616819
  -exchange      EXHF   =         0.00000000
  -V(xc)+E(xc)   XCENC  =      -144.56268703
  PAW double counting   =      5275.59974000    -4829.39516380
  entropy T*S    EENTRO =        -0.01970069
  eigenvalues    EBANDS =      -860.58041633
  atomic energy  EATOM  =      4530.72999957
  Solvation  Ediel_sol  =         0.00000000
  ---------------------------------------------------
  free energy    TOTEN  =      -108.25331514 eV

  energy without entropy =     -108.23361445  energy(sigma->0) =     -108.24346480


--------------------------------------------------------------------------------------------------------




--------------------------------------- Iteration      1(  22)  ---------------------------------------


    POTLOK:  cpu time    0.0625: real time    0.0626
    SETDIJ:  cpu time    0.0902: real time    0.0903
     EDDAV:  cpu time    3.4496: real time    3.4526
       DOS:  cpu time    0.0007: real time    0.0007
    CHARGE:  cpu time    0.2593: real time    0.2595
    MIXING:  cpu time    0.0039: real time    0.0039
    --------------------------------------------
      LOOP:  cpu time    3.8664: real time    3.8696

 eigenvalue-minimisations  :  3160
 total energy-change (2. order) : 0.9069549E-02  (-0.1625993E-02)
 number of electron      78.0000001 magnetization 
 augmentation part        6.4913420 magnetization 

 Broyden mixing:
  rms(total) = 0.83276E-01    rms(broyden)= 0.82585E-01
  rms(prec ) = 0.87538E-01
  weight for this iteration     100.00

 eigenvalues of (default mixing * dielectric matrix)
  average eigenvalue GAMMA=   0.9177
  2.5557  2.5557  1.1497  1.1497  1.2095  0.9015  0.9015  0.7997  0.7997  0.6477
  0.6477  0.5302  0.5302  0.4321  0.2776  0.2776  0.2355

 Free energy of the ion-electron system (eV)
  ---------------------------------------------------
  alpha Z        PSCENC =        62.96259514
  Ewald energy   TEWEN  =    167515.37848618
  -Hartree energ DENC   =   -171658.68182622
  -exchange      EXHF   =         0.00000000
  -V(xc)+E(xc)   XCENC  =      -144.55312528
  PAW double counting   =      5276.50402199    -4830.30175172
  entropy T*S    EENTRO =        -0.02153926
  eigenvalues    EBANDS =      -860.26110599
  atomic energy  EATOM  =      4530.72999957
  Solvation  Ediel_sol  =         0.00000000
  ---------------------------------------------------
  free energy    TOTEN  =      -108.24424559 eV

  energy without entropy =     -108.22270633  energy(sigma->0) =     -108.23347596


--------------------------------------------------------------------------------------------------------




--------------------------------------- Iteration      1(  23)  ---------------------------------------


    POTLOK:  cpu time    0.0621: real time    0.0621
    SETDIJ:  cpu time    0.0912: real time    0.0912
     EDDAV:  cpu time    2.8710: real time    2.8733
       DOS:  cpu time    0.0008: real time    0.0008
    CHARGE:  cpu time    0.2521: real time    0.2523
    MIXING:  cpu time    0.0034: real time    0.0034
    --------------------------------------------
      LOOP:  cpu time    3.2805: real time    3.2831

 eigenvalue-minimisations  :  2480
 total energy-change (2. order) :-0.2295569E-02  (-0.1865549E-03)
 number of electron      78.0000001 magnetization 
 augmentation part        6.4912554 magnetization 

 Broyden mixing:
  rms(total) = 0.10930E+00    rms(broyden)= 0.10926E+00
  rms(prec ) = 0.13072E+00
  weight for this iteration     100.00

 eigenvalues of (default mixing * dielectric matrix)
  average eigenvalue GAMMA=   0.9117
  2.6204  2.4674  1.3896  1.3896  0.9958  0.9958  0.8713  0.8713  0.6962  0.6962
  0.5284  0.5284  0.5691  0.5691  0.2776  0.2776  0.4311  0.2354

 Free energy of the ion-electron system (eV)
  ---------------------------------------------------
  alpha Z        PSCENC =        62.96259514
  Ewald energy   TEWEN  =    167515.37848618
  -Hartree energ DENC   =   -171658.72857609
  -exchange      EXHF   =         0.00000000
  -V(xc)+E(xc)   XCENC  =      -144.55150620
  PAW double counting   =      5276.73214218    -4830.53132427
  entropy T*S    EENTRO =        -0.02156348
  eigenvalues    EBANDS =      -860.21679420
  atomic energy  EATOM  =      4530.72999957
  Solvation  Ediel_sol  =         0.00000000
  ---------------------------------------------------
  free energy    TOTEN  =      -108.24654116 eV

  energy without entropy =     -108.22497768  energy(sigma->0) =     -108.23575942


--------------------------------------------------------------------------------------------------------




--------------------------------------- Iteration      1(  24)  ---------------------------------------


    POTLOK:  cpu time    0.0616: real time    0.0617
    SETDIJ:  cpu time    0.0900: real time    0.0900
     EDDAV:  cpu time    3.1825: real time    3.1850
       DOS:  cpu time    0.0008: real time    0.0008
    CHARGE:  cpu time    0.2502: real time    0.2504
    MIXING:  cpu time    0.0045: real time    0.0045
    --------------------------------------------
      LOOP:  cpu time    3.5895: real time    3.5923

 eigenvalue-minimisations  :  2850
 total energy-change (2. order) :-0.6785367E-03  (-0.1484095E-03)
 number of electron      78.0000001 magnetization 
 augmentation part        6.4916884 magnetization 

 Broyden mixing:
  rms(total) = 0.13994E+00    rms(broyden)= 0.13991E+00
  rms(prec ) = 0.17095E+00
  weight for this iteration     100.00

 eigenvalues of (default mixing * dielectric matrix)
  average eigenvalue GAMMA=   0.9242
  2.5189  2.5189  1.4443  1.4443  1.0645  1.0645  0.7330  0.7330  0.8756  0.8527
  0.8527  0.5266  0.5266  0.5907  0.5907  0.2776  0.2776  0.4317  0.2355

 Free energy of the ion-electron system (eV)
  ---------------------------------------------------
  alpha Z        PSCENC =        62.96259514
  Ewald energy   TEWEN  =    167515.37848618
  -Hartree energ DENC   =   -171658.75356487
  -exchange      EXHF   =         0.00000000
  -V(xc)+E(xc)   XCENC  =      -144.55206478
  PAW double counting   =      5276.51415769    -4830.31223669
  entropy T*S    EENTRO =        -0.02294075
  eigenvalues    EBANDS =      -860.19165119
  atomic energy  EATOM  =      4530.72999957
  Solvation  Ediel_sol  =         0.00000000
  ---------------------------------------------------
  free energy    TOTEN  =      -108.24721970 eV

  energy without entropy =     -108.22427895  energy(sigma->0) =     -108.23574932


--------------------------------------------------------------------------------------------------------




--------------------------------------- Iteration      1(  25)  ---------------------------------------


    POTLOK:  cpu time    0.0617: real time    0.0618
    SETDIJ:  cpu time    0.0915: real time    0.0915
     EDDAV:  cpu time    3.2792: real time    3.2820
       DOS:  cpu time    0.0008: real time    0.0011
    CHARGE:  cpu time    0.2533: real time    0.2535
    MIXING:  cpu time    0.0058: real time    0.0058
    --------------------------------------------
      LOOP:  cpu time    3.6923: real time    3.6957

 eigenvalue-minimisations  :  2960
 total energy-change (2. order) : 0.3250083E-02  (-0.1118105E-02)
 number of electron      78.0000001 magnetization 
 augmentation part        6.4921498 magnetization 

 Broyden mixing:
  rms(total) = 0.60000E-01    rms(broyden)= 0.59097E-01
  rms(prec ) = 0.62849E-01
  weight for this iteration     100.00

 eigenvalues of (default mixing * dielectric matrix)
  average eigenvalue GAMMA=   0.9270
  2.6462  2.6462  1.6765  1.6765  1.0909  1.0909  0.7341  0.7341  0.7790  0.7790
  0.8040  0.6855  0.5258  0.5258  0.4610  0.4610  0.4334  0.2776  0.2776  0.2355

 Free energy of the ion-electron system (eV)
  ---------------------------------------------------
  alpha Z        PSCENC =        62.96259514
  Ewald energy   TEWEN  =    167515.37848618
  -Hartree energ DENC   =   -171658.81925317
  -exchange      EXHF   =         0.00000000
  -V(xc)+E(xc)   XCENC  =      -144.55506647
  PAW double counting   =      5276.24846752    -4830.04483420
  entropy T*S    EENTRO =        -0.02584430
  eigenvalues    EBANDS =      -860.11851989
  atomic energy  EATOM  =      4530.72999957
  Solvation  Ediel_sol  =         0.00000000
  ---------------------------------------------------
  free energy    TOTEN  =      -108.24396962 eV

  energy without entropy =     -108.21812532  energy(sigma->0) =     -108.23104747


--------------------------------------------------------------------------------------------------------




--------------------------------------- Iteration      1(  26)  ---------------------------------------


    POTLOK:  cpu time    0.0612: real time    0.0617
    SETDIJ:  cpu time    0.0908: real time    0.0912
     EDDAV:  cpu time    2.9121: real time    2.9146
       DOS:  cpu time    0.0008: real time    0.0012
    CHARGE:  cpu time    0.2487: real time    0.2489
    MIXING:  cpu time    0.0078: real time    0.0078
    --------------------------------------------
      LOOP:  cpu time    3.3214: real time    3.3254

 eigenvalue-minimisations  :  2510
 total energy-change (2. order) :-0.1697029E-03  (-0.1644896E-03)
 number of electron      78.0000001 magnetization 
 augmentation part        6.4930700 magnetization 

 Broyden mixing:
  rms(total) = 0.52021E-01    rms(broyden)= 0.51953E-01
  rms(prec ) = 0.59887E-01
  weight for this iteration     100.00

 eigenvalues of (default mixing * dielectric matrix)
  average eigenvalue GAMMA=   0.9506
  2.6693  2.6693  1.8530  1.8530  1.0499  1.0499  0.9802  0.9802  0.8061  0.8061
  0.6898  0.6140  0.6140  0.5327  0.5327  0.5195  0.5195  0.4322  0.2776  0.2776
  0.2355

 Free energy of the ion-electron system (eV)
  ---------------------------------------------------
  alpha Z        PSCENC =        62.96259514
  Ewald energy   TEWEN  =    167515.37848618
  -Hartree energ DENC   =   -171658.88944785
  -exchange      EXHF   =         0.00000000
  -V(xc)+E(xc)   XCENC  =      -144.55829680
  PAW double counting   =      5275.90553841    -4829.70110031
  entropy T*S    EENTRO =        -0.02777846
  eigenvalues    EBANDS =      -860.04413520
  atomic energy  EATOM  =      4530.72999957
  Solvation  Ediel_sol  =         0.00000000
  ---------------------------------------------------
  free energy    TOTEN  =      -108.24413932 eV

  energy without entropy =     -108.21636086  energy(sigma->0) =     -108.23025009


--------------------------------------------------------------------------------------------------------




--------------------------------------- Iteration      1(  27)  ---------------------------------------


[...]
     44       3.7832      0.00000
     45       4.0558      0.00000
     46       4.4081      0.00000
     47       4.6833      0.00000
     48       4.7463      0.00000
     49       4.9628      0.00000
     50       5.1105      0.00000

 k-point    17 :       0.3846    0.1538   -0.0000
  band No.  band energies     occupation 
      1     -21.6476      2.00000
      2     -21.5837      2.00000
      3     -21.5304      2.00000
      4     -21.4801      2.00000
      5     -21.4266      2.00000
      6     -21.3589      2.00000
      7     -21.3502      2.00000
      8     -21.2082      2.00000
      9     -20.4979      2.00000
     10     -20.4063      2.00000
     11      -9.9171      2.00000
     12      -9.7222      2.00000
     13      -9.4898      2.00000
     14      -9.4521      2.00000
     15      -9.3215      2.00000
     16      -9.2537      2.00000
     17      -9.1660      2.00000
     18      -8.9915      2.00000
     19      -8.0670      2.00000
     20      -7.9741      2.00000
     21      -7.8121      2.00000
     22      -7.6644      2.00000
     23      -7.6151      2.00000
     24      -7.5259      2.00000
     25      -7.4306      2.00000
     26      -7.3370      2.00000
     27      -7.1634      2.00000
     28      -7.1340      2.00000
     29      -7.0125      2.00000
     30      -6.9578      2.00000
     31      -6.8926      2.00000
     32      -6.7094      2.00000
     33      -6.5601      2.00000
     34      -6.4560      2.00000
     35      -6.4415      2.00000
     36      -6.3564      2.00000
     37      -5.7586      2.00000
     38      -5.6776      2.00000
     39      -5.3061      1.95564
     40      -5.2964      1.91763
     41       2.8535      0.00000
     42       3.2519      0.00000
     43       3.7630      0.00000
     44       3.9708      0.00000
     45       4.2759      0.00000
     46       4.3982      0.00000
     47       4.6383      0.00000
     48       4.7449      0.00000
     49       4.8373      0.00000
     50       5.0317      0.00000

 k-point    18 :       0.2308    0.2308   -0.0000
  band No.  band energies     occupation 
      1     -21.8295      2.00000
      2     -21.7418      2.00000
      3     -21.6577      2.00000
      4     -21.5699      2.00000
      5     -21.4821      2.00000
      6     -21.4041      2.00000
      7     -21.3819      2.00000
      8     -21.2522      2.00000
      9     -20.5403      2.00000
     10     -20.4569      2.00000
     11      -9.3907      2.00000
     12      -9.3863      2.00000
     13      -9.2365      2.00000
     14      -9.2172      2.00000
     15      -9.0867      2.00000
     16      -9.0061      2.00000
     17      -8.8394      2.00000
     18      -8.6347      2.00000
     19      -8.4535      2.00000
     20      -8.1708      2.00000
     21      -7.8833      2.00000
     22      -7.6431      2.00000
     23      -7.5296      2.00000
     24      -7.4290      2.00000
     25      -7.3558      2.00000
     26      -7.3015      2.00000
     27      -7.2508      2.00000
     28      -7.1886      2.00000
     29      -7.0826      2.00000
     30      -7.0075      2.00000
     31      -6.8082      2.00000
     32      -6.6469      2.00000
     33      -6.4922      2.00000
     34      -6.3465      2.00000
     35      -6.3296      2.00000
     36      -6.2729      2.00000
     37      -5.7933      2.00000
     38      -5.7125      2.00000
     39      -5.2711      1.69389
     40      -5.2665      1.62819
     41       3.0815      0.00000
     42       3.2225      0.00000
     43       3.4348      0.00000
     44       3.7465      0.00000
     45       4.1567      0.00000
     46       4.6476      0.00000
     47       5.1547      0.00000
     48       5.4132      0.00000
     49       5.4216      0.00000
     50       5.4848      0.00000

 k-point    19 :       0.3077    0.2308    0.0000
  band No.  band energies     occupation 
      1     -21.6483      2.00000
      2     -21.5804      2.00000
      3     -21.5231      2.00000
      4     -21.4689      2.00000
      5     -21.4131      2.00000
      6     -21.3447      2.00000
      7     -21.3381      2.00000
      8     -21.1957      2.00000
      9     -20.4891      2.00000
     10     -20.3978      2.00000
     11      -9.5898      2.00000
     12      -9.4113      2.00000
     13      -9.3491      2.00000
     14      -9.2403      2.00000
     15      -9.1820      2.00000
     16      -9.0391      2.00000
     17      -8.9017      2.00000
     18      -8.7486      2.00000
     19      -8.4255      2.00000
     20      -8.2446      2.00000
     21      -8.0668      2.00000
     22      -7.8817      2.00000
     23      -7.8145      2.00000
     24      -7.7281      2.00000
     25      -7.6421      2.00000
     26      -7.5544      2.00000
     27      -7.4832      2.00000
     28      -7.3454      2.00000
     29      -7.2301      2.00000
     30      -6.9795      2.00000
     31      -6.8374      2.00000
     32      -6.7248      2.00000
     33      -6.6236      2.00000
     34      -6.4924      2.00000
     35      -6.4282      2.00000
     36      -6.3675      2.00000
     37      -5.9295      2.00000
     38      -5.8894      2.00000
     39      -5.2833      1.82866
     40      -5.2756      1.74966
     41       3.5077      0.00000
     42       3.7589      0.00000
     43       4.0317      0.00000
     44       4.1148      0.00000
     45       4.3683      0.00000
     46       4.6924      0.00000
     47       5.0780      0.00000
     48       5.4088      0.00000
     49       5.4485      0.00000
     50       5.6136      0.00000

 k-point    20 :       0.3846    0.2308    0.0000
  band No.  band energies     occupation 
      1     -21.5617      2.00000
      2     -21.5139      2.00000
      3     -21.4784      2.00000
      4     -21.4422      2.00000
      5     -21.3970      2.00000
      6     -21.3329      2.00000
      7     -21.3146      2.00000
      8     -21.1747      2.00000
      9     -20.4704      2.00000
     10     -20.3761      2.00000
     11      -9.6718      2.00000
     12      -9.4811      2.00000
     13      -9.2616      2.00000
     14      -9.2282      2.00000
     15      -9.1519      2.00000
     16      -9.0711      2.00000
     17      -9.0086      2.00000
     18      -8.8345      2.00000
     19      -8.2801      2.00000
     20      -8.2247      2.00000
     21      -8.1826      2.00000
     22      -8.1092      2.00000
     23      -8.0747      2.00000
     24      -7.8656      2.00000
     25      -7.6850      2.00000
     26      -7.5844      2.00000
     27      -7.5253      2.00000
     28      -7.4607      2.00000
     29      -7.0729      2.00000
     30      -6.9977      2.00000
     31      -6.8954      2.00000
     32      -6.7617      2.00000
     33      -6.6517      2.00000
     34      -6.5954      2.00000
     35      -6.4627      2.00000
     36      -6.3996      2.00000
     37      -5.9692      2.00000
     38      -5.9468      2.00000
     39      -5.2906      1.88426
     40      -5.2777      1.77296
     41       3.5883      0.00000
     42       3.8879      0.00000
     43       4.2558      0.00000
     44       4.2969      0.00000
     45       4.6423      0.00000
     46       4.7583      0.00000
     47       5.0647      0.00000
     48       5.2501      0.00000
     49       5.4894      0.00000
     50       5.5409      0.00000

 k-point    21 :       0.3077    0.3077   -0.0000
  band No.  band energies     occupation 
      1     -21.5299      2.00000
      2     -21.4905      2.00000
      3     -21.4634      2.00000
      4     -21.4285      2.00000
      5     -21.3854      2.00000
      6     -21.3223      2.00000
      7     -21.3008      2.00000
      8     -21.1615      2.00000
      9     -20.4600      2.00000
     10     -20.3649      2.00000
     11      -9.3268      2.00000
     12      -9.3168      2.00000
     13      -9.1680      2.00000
     14      -9.1286      2.00000
     15      -8.9675      2.00000
     16      -8.9294      2.00000
     17      -8.8096      2.00000
     18      -8.7382      2.00000
     19      -8.6107      2.00000
     20      -8.4997      2.00000
     21      -8.4480      2.00000
     22      -8.2851      2.00000
     23      -8.2365      2.00000
     24      -8.0733      2.00000
     25      -8.0254      2.00000
     26      -7.8764      2.00000
     27      -7.4753      2.00000
     28      -7.4605      2.00000
     29      -7.0541      2.00000
     30      -6.9210      2.00000
     31      -6.8398      2.00000
     32      -6.8042      2.00000
     33      -6.7909      2.00000
     34      -6.6703      2.00000
     35      -6.4608      2.00000
     36      -6.4117      2.00000
     37      -6.0620      2.00000
     38      -6.0419      2.00000
     39      -5.2857      1.84908
     40      -5.2709      1.69108
     41       4.2476      0.00000
     42       4.2725      0.00000
     43       4.3160      0.00000
     44       4.4312      0.00000
     45       4.6014      0.00000
     46       4.8389      0.00000
     47       5.0738      0.00000
     48       5.3792      0.00000
     49       5.9011      0.00000
     50       5.9501      0.00000


--------------------------------------------------------------------------------------------------------


 soft charge-density along one line, spin component           1
         0         1         2         3         4         5         6         7         8         9
 total charge-density along one line
 
 pseudopotential strength for first ion, spin component:           1
 13.503 -16.535  -0.000  -0.042   0.000   0.000   0.053  -0.000
-16.535  20.276   0.000   0.054  -0.000  -0.000  -0.068   0.000
 -0.000   0.000 -10.099  -0.000   0.000  12.457   0.000  -0.000
 -0.042   0.054  -0.000 -10.048   0.000   0.000  12.388  -0.000
  0.000  -0.000   0.000   0.000 -10.099  -0.000  -0.000  12.457
  0.000  -0.000  12.457   0.000  -0.000 -15.281  -0.000   0.000
  0.053  -0.068   0.000  12.388  -0.000  -0.000 -15.186   0.000
 -0.000   0.000  -0.000  -0.000  12.457   0.000   0.000 -15.281
 total augmentation occupancy for first ion, spin component:           1
  2.435   0.238   0.000   0.148  -0.000  -0.000   0.051  -0.000
  0.238   0.041   0.000   0.140  -0.000   0.000   0.017  -0.000
  0.000   0.000   1.717  -0.000  -0.000   0.137   0.000  -0.000
  0.148   0.140  -0.000   1.907  -0.000   0.000   0.140  -0.000
 -0.000  -0.000  -0.000  -0.000   1.717  -0.000  -0.000   0.137
 -0.000   0.000   0.137   0.000  -0.000   0.012   0.000  -0.000
  0.051   0.017  -0.000   0.140  -0.000   0.000   0.013  -0.000
 -0.000  -0.000  -0.000  -0.000   0.137  -0.000  -0.000   0.012


------------------------ aborting loop because EDIFF is reached ----------------------------------------


    CHARGE:  cpu time    0.2476: real time    0.2478
    FORLOC:  cpu time    0.0107: real time    0.0107
    FORNL :  cpu time    1.2132: real time    1.2139
    STRESS:  cpu time    2.6927: real time    2.6944
    FORCOR:  cpu time    0.0701: real time    0.0702
    FORHAR:  cpu time    0.0237: real time    0.0238
    MIXING:  cpu time    0.0059: real time    0.0059
    OFIELD:  cpu time    0.0001: real time    0.0001

  FORCE on cell =-STRESS in cart. coord.  units (eV):
  Direction    XX          YY          ZZ          XY          YZ          ZX
  --------------------------------------------------------------------------------------
  Alpha Z    62.96260    62.96260    62.96260
  Ewald  169835.97417169835.97442************    -0.00007     0.00001    -0.00012
  Hartree170724.69011170724.69005************    -0.00000    -0.00000     0.00003
  E(xc)    -354.81091  -354.81092  -354.71978     0.00000     0.00000     0.00000
  Local  ************************340945.76315    -0.00016    -0.00000     0.00003
  n-local  -181.76921  -194.13307  -190.24026     2.03874    -1.92146     4.73514
  augment    66.92694    66.92670    67.33578     0.00019    -0.00000     0.00000
  Kinetic  1363.75381  1431.74864  1405.08826    -7.21920     2.18140     1.06927
  Fock        0.00000     0.00000     0.00000     0.00000     0.00000     0.00000
  -------------------------------------------------------------------------------------
  Total      -0.19680    -0.19680    -2.30415     0.00000     0.00000     0.00000
  in kB      -0.58630    -0.58630    -6.86442     0.00000     0.00000     0.00000
  external pressure =       -2.68 kB  Pullay stress =        0.00 kB


 VOLUME and BASIS-vectors are now :
 -----------------------------------------------------------------------------
  energy-cutoff  :      450.00
  volume of cell :      537.80
      direct lattice vectors                 reciprocal lattice vectors
     2.607300145 -1.505325125  0.000000000     0.383538505  0.000000000  0.000000000
     0.000000000  3.010650250  0.000000000     0.191769253  0.332154158  0.000000000
    -0.000000000  0.000000000 68.512039442     0.000000000  0.000000000  0.014595975

  length of vectors
     3.010650723  3.010650250 68.512039442     0.383538505  0.383538565  0.014595975


 FORCES acting on ions
    electron-ion (+dipol)            ewald-force                    non-local-force                 convergence-correction
 -----------------------------------------------------------------------------------------------
   0.224E-05 -.479E-06 0.321E+04   0.209E-04 -.263E-04 -.323E+04   -.797E-16 -.208E-16 0.177E+02   -.774E-08 0.133E-07 -.145E+00
   0.107E-02 -.185E-02 0.252E+04   0.608E-04 -.105E-03 -.252E+04   -.104E-16 0.325E-17 0.181E+01   0.474E-07 -.858E-07 -.550E+00
   0.479E-07 -.673E-09 0.108E+04   -.147E-05 0.185E-05 -.108E+04   0.828E-18 -.217E-18 -.210E+00   0.474E-10 -.539E-10 -.624E+00
   0.107E-02 -.185E-02 0.363E+03   0.597E-04 -.104E-03 -.363E+03   0.136E-17 -.217E-18 -.230E+00   -.507E-08 0.876E-08 -.630E+00
   0.356E-07 -.195E-07 -.108E+04   -.177E-05 0.223E-05 0.108E+04   0.193E-17 0.271E-19 -.310E+00   -.766E-10 0.233E-10 -.634E+00
   0.107E-02 -.185E-02 -.180E+04   0.601E-04 -.106E-03 0.180E+04   0.368E-17 0.173E-17 -.661E+00   -.957E-08 0.156E-07 -.614E+00
   -.251E-05 0.522E-06 -.322E+04   -.317E-04 0.403E-04 0.324E+04   0.770E-16 0.000E+00 -.150E+02   0.187E-10 0.552E-09 -.926E-01
   -.107E-02 0.185E-02 0.180E+04   -.594E-04 0.102E-03 -.180E+04   -.931E-18 0.867E-18 0.659E-01   -.336E-08 0.535E-08 -.618E+00
   -.107E-02 0.185E-02 -.356E+03   -.595E-04 0.102E-03 0.357E+03   0.123E-17 0.434E-18 -.257E+00   0.540E-08 -.938E-08 -.635E+00
   -.107E-02 0.185E-02 -.252E+04   -.599E-04 0.983E-04 0.252E+04   0.126E-16 0.260E-17 -.224E+01   0.874E-07 -.156E-06 -.495E+00
   -.362E-06 0.256E-06 0.720E+03   0.143E-05 -.180E-05 -.720E+03   0.588E-18 0.260E-17 -.159E+00   0.115E-08 -.166E-08 -.198E+00
   -.553E-06 0.278E-06 0.401E+00   0.153E-05 -.193E-05 -.189E-01   0.654E-18 0.173E-17 -.226E+00   0.980E-12 0.977E-11 -.211E+00
   -.157E-05 0.618E-06 -.721E+03   0.494E-05 -.621E-05 0.722E+03   -.111E-17 0.000E+00 -.641E+00   0.217E-08 -.315E-08 -.190E+00
   0.483E-04 -.825E-04 0.963E+03   -.547E-04 0.927E-04 -.964E+03   -.166E-18 0.139E-16 0.170E+00   0.576E-09 0.117E-08 -.130E+00
   0.445E-04 -.776E-04 0.240E+03   -.507E-04 0.886E-04 -.240E+03   0.195E-17 -.173E-17 -.221E+00   0.266E-09 -.462E-09 -.209E+00
   0.446E-04 -.780E-04 -.480E+03   -.511E-04 0.894E-04 0.480E+03   0.376E-17 -.694E-17 -.297E+00   0.161E-09 -.178E-09 -.209E+00
   -.450E-04 0.773E-04 0.480E+03   0.504E-04 -.865E-04 -.480E+03   0.204E-18 0.173E-17 -.209E+00   0.297E-10 0.439E-10 -.207E+00
   -.451E-04 0.774E-04 -.240E+03   0.505E-04 -.867E-04 0.240E+03   0.231E-18 0.173E-17 -.237E+00   -.110E-09 0.191E-09 -.212E+00
   -.570E-04 0.907E-04 -.972E+03   0.599E-04 -.935E-04 0.975E+03   -.534E-16 0.278E-16 -.220E+01   0.255E-07 -.420E-07 -.934E-01
 -----------------------------------------------------------------------------------------------
   -.106E-04 0.676E-05 0.100E+02   0.168E-12 0.349E-13 0.909E-12   -.397E-16 0.284E-16 -.332E+01   0.144E-06 -.253E-06 -.670E+01
 
 
 POSITION                                       TOTAL-FORCE (eV/Angst)
 -----------------------------------------------------------------------------------
     -0.00000      0.00000     30.80962        -0.000000     -0.000000      0.586881
      0.86910      1.50533     33.16400        -0.000000     -0.000000      0.614196
     -0.00000      0.00000     38.07554        -0.000000      0.000000      0.055744
      0.86910      1.50533     40.52978        -0.000000     -0.000000      0.058109
     -0.00000      0.00000     45.43791        -0.000000     -0.000000      0.049480
      0.86910      1.50533     47.88614        -0.000000      0.000000      0.026545
     -0.00000      0.00000     52.58341         0.000000      0.000000     -0.050650
      1.73820     -0.00000     35.61941        -0.000000      0.000000      0.136017
      1.73820     -0.00000     42.98474        -0.000000      0.000000      0.049491
      1.73820     -0.00000     50.30122         0.000000     -0.000000      0.012187
     -0.00000      0.00000     34.40830         0.000000     -0.000000     -0.247077
     -0.00000      0.00000     41.77503         0.000000     -0.000000     -0.055255
     -0.00000      0.00000     49.14864         0.000000      0.000000     -0.019891
      1.73820     -0.00000     31.94848         0.000000      0.000000     -1.012744
      1.73820     -0.00000     39.32003         0.000000     -0.000000     -0.056633
      1.73820     -0.00000     46.68568         0.000000     -0.000000     -0.049024
      0.86910      1.50533     36.86465         0.000000     -0.000000     -0.084488
      0.86910      1.50533     44.22996         0.000000     -0.000000     -0.054669
      0.86910      1.50533     51.66268        -0.000000      0.000000      0.041781
 -----------------------------------------------------------------------------------
    total drift:                               -0.000010      0.000007      0.000005


--------------------------------------------------------------------------------------------------------



  FREE ENERGIE OF THE ION-ELECTRON SYSTEM (eV)
  ---------------------------------------------------
  free  energy   TOTEN  =      -108.24484893 eV

  energy  without entropy=     -108.21598974  energy(sigma->0) =     -108.23041933
 


--------------------------------------------------------------------------------------------------------


    POTLOK:  cpu time    0.1485: real time    0.1488


--------------------------------------------------------------------------------------------------------


 stress matrix after NEB project (eV)
     -0.19680      0.00000      0.00000
      0.00000     -0.19680      0.00000
      0.00000      0.00000     -2.30415
  FORCES: max atom, RMS     1.012744    0.313100
  FORCE total and by dimension    1.364770    1.012744
  Stress total and by dimension    2.320902    2.304154
     LOOP+:  cpu time  162.4711: real time  162.6153
    4ORBIT:  cpu time    0.0000: real time    0.0000

 total amount of memory used by VASP MPI-rank0    86941. kBytes
=======================================================================

   base      :      30000. kBytes
   nonl-proj :      13688. kBytes
   fftplans  :      21351. kBytes
   grid      :      11833. kBytes
   one-center:         40. kBytes
   wavefun   :      10029. kBytes
 
  
  
 General timing and accounting informations for this job:
 ========================================================
  
                  Total CPU time used (sec):      167.511
                            User time (sec):      164.584
                          System time (sec):        2.927
                         Elapsed time (sec):      167.648
  
                   Maximum memory used (kb):      203888.
                   Average memory used (kb):           0.
  
                          Minor page faults:       370643
                          Major page faults:            0
                 Voluntary context switches:          423
