 vasp.5.4.4.18Apr17-6-g9f103f2a35 (build Nov 15 2019 10:10:58) complex          
  
 executed on             LinuxIFC date 2025.01.15  08:35:51
 running on   16 total cores
 distrk:  each k-point on   16 cores,    1 groups
 distr:  one band on NCORES_PER_BAND=   4 cores,    4 groups


--------------------------------------------------------------------------------------------------------


 INCAR:
 POTCAR:   PAW_PBE O 08Apr2002                    
 POTCAR:   PAW_PBE Mg 05Jan2001                   
 POTCAR:   PAW_PBE Al 04Jan2001                   
 POTCAR:   PAW_PBE O 08Apr2002                    
   VRHFIN =O: s2p4                                                              
   LEXCH  = PE                                                                  
   EATOM  =   432.3788 eV,   31.7789 Ry                                         
                                                                                
   TITEL  = PAW_PBE O 08Apr2002                                                 
   LULTRA =        F    use ultrasoft PP ?                                      
   IUNSCR =        0    unscreen: 0-lin 1-nonlin 2-no                           
   RPACOR =     .000    partial core radius                                     
   POMASS =   16.000; ZVAL   =    6.000    mass and valenz                      
   RCORE  =    1.520    outmost cutoff radius                                   
   RWIGS  =    1.550; RWIGS  =     .820    wigner-seitz radius (au A)           
   ENMAX  =  400.000; ENMIN  =  300.000 eV                                      
   ICORE  =        2    local potential                                         
   LCOR   =        T    correct aug charges                                     
   LPAW   =        T    paw PP                                                  
   EAUG   =  605.392                                                            
   DEXC   =     .000                                                            
   RMAX   =    2.264    core radius for proj-oper                               
   RAUG   =    1.300    factor for augmentation sphere                          
   RDEP   =    1.550    radius for radial grids                                 
   QCUT   =   -5.520; QGAM   =   11.041    optimization parameters              
                                                                                
   Description                                                                  
     l     E      TYP  RCUT    TYP  RCUT                                        
     0   .000     23  1.200                                                     
     0  -.700     23  1.200                                                     
     1   .000     23  1.520                                                     
     1   .600     23  1.520                                                     
     2   .000      7  1.500                                                     
  local pseudopotential read in
  atomic valenz-charges read in
  non local Contribution for L=           0  read in
    real space projection operators read in
  non local Contribution for L=           0  read in
    real space projection operators read in
  non local Contribution for L=           1  read in
    real space projection operators read in
  non local Contribution for L=           1  read in
    real space projection operators read in
    PAW grid and wavefunctions read in
 
   number of l-projection  operators is LMAX  =           4
   number of lm-projection operators is LMMAX =           8
 
 POTCAR:   PAW_PBE Mg 05Jan2001                   
   VRHFIN =Mg: s2p0                                                             
   LEXCH  = PE                                                                  
   EATOM  =    23.0029 eV,    1.6907 Ry                                         
                                                                                
   TITEL  = PAW_PBE Mg 05Jan2001                                                
   LULTRA =        F    use ultrasoft PP ?                                      
   IUNSCR =        1    unscreen: 0-lin 1-nonlin 2-no                           
   RPACOR =    2.000    partial core radius                                     
   POMASS =   24.305; ZVAL   =    2.000    mass and valenz                      
   RCORE  =    2.000    outmost cutoff radius                                   
   RWIGS  =    2.880; RWIGS  =    1.524    wigner-seitz radius (au A)           
   ENMAX  =  210.012; ENMIN  =  157.509 eV                                      
   ICORE  =        2    local potential                                         
   LCOR   =        T    correct aug charges                                     
   LPAW   =        T    paw PP                                                  
   EAUG   =  274.554                                                            
   DEXC   =    -.136                                                            
   RMAX   =    3.182    core radius for proj-oper                               
   RAUG   =    1.300    factor for augmentation sphere                          
   RDEP   =    2.025    radius for radial grids                                 
   QCUT   =   -3.929; QGAM   =    7.858    optimization parameters              
                                                                                
   Description                                                                  
     l     E      TYP  RCUT    TYP  RCUT                                        
     0   .000     23  2.000                                                     
     0  2.000     23  2.000                                                     
     1   .000     23  2.000                                                     
     1  2.000     23  2.000                                                     
     2   .000     23  2.000                                                     
  local pseudopotential read in
  partial core-charges read in
  atomic valenz-charges read in
  non local Contribution for L=           0  read in
    real space projection operators read in
  non local Contribution for L=           0  read in
    real space projection operators read in
  non local Contribution for L=           1  read in
    real space projection operators read in
  non local Contribution for L=           1  read in
    real space projection operators read in
    PAW grid and wavefunctions read in
 
   number of l-projection  operators is LMAX  =           4
   number of lm-projection operators is LMMAX =           8
 
 POTCAR:   PAW_PBE Al 04Jan2001                   
   VRHFIN =Al: s2p1                                                             
   LEXCH  = PE                                                                  
   EATOM  =    53.5387 eV,    3.9350 Ry                                         
                                                                                
   TITEL  = PAW_PBE Al 04Jan2001                                                
   LULTRA =        F    use ultrasoft PP ?                                      
   IUNSCR =        1    unscreen: 0-lin 1-nonlin 2-no                           
   RPACOR =    1.500    partial core radius                                     
   POMASS =   26.982; ZVAL   =    3.000    mass and valenz                      
   RCORE  =    1.900    outmost cutoff radius                                   
   RWIGS  =    2.650; RWIGS  =    1.402    wigner-seitz radius (au A)           
   ENMAX  =  240.300; ENMIN  =  180.225 eV                                      
   ICORE  =        2    local potential                                         
   LCOR   =        T    correct aug charges                                     
   LPAW   =        T    paw PP                                                  
   EAUG   =  291.052                                                            
   DEXC   =    -.041                                                            
   RMAX   =    2.974    core radius for proj-oper                               
   RAUG   =    1.300    factor for augmentation sphere                          
   RDEP   =    1.966    radius for radial grids                                 
   QCUT   =   -4.203; QGAM   =    8.405    optimization parameters              
                                                                                
   Description                                                                  
     l     E      TYP  RCUT    TYP  RCUT                                        
     0   .000     23  1.900                                                     
     0   .000     23  1.900                                                     
     1   .000     23  1.900                                                     
     1  1.000     23  1.900                                                     
     2   .000      7  1.900                                                     
  local pseudopotential read in
  partial core-charges read in
  atomic valenz-charges read in
  non local Contribution for L=           0  read in
    real space projection operators read in
  non local Contribution for L=           0  read in
    real space projection operators read in
  non local Contribution for L=           1  read in
    real space projection operators read in
  non local Contribution for L=           1  read in
    real space projection operators read in
    PAW grid and wavefunctions read in
 
   number of l-projection  operators is LMAX  =           4
   number of lm-projection operators is LMMAX =           8
 

 ----------------------------------------------------------------------------- 
|                                                                             |
|  ADVICE TO THIS USER RUNNING 'VASP/VAMP'   (HEAR YOUR MASTER'S VOICE ...):  |
|                                                                             |
|      You have a (more or less) 'large supercell' and for larger cells       |
|      it might be more efficient to use real space projection operators      |
|      So try LREAL= Auto  in the INCAR   file.                               |
|      Mind: If you want to do a very accurate calculations keep the          |
|      reciprocal projection scheme          (i.e. LREAL=.FALSE.)             |
|                                                                             |
 ----------------------------------------------------------------------------- 

 PAW_PBE O 08Apr2002                    :
 energy of atom  1       EATOM= -432.3788
 kinetic energy error for atom=    0.0208 (will be added to EATOM!!)
 PAW_PBE Mg 05Jan2001                   :
 energy of atom  2       EATOM=  -23.0029
 kinetic energy error for atom=    0.0000 (will be added to EATOM!!)
 PAW_PBE Al 04Jan2001                   :
 energy of atom  3       EATOM=  -53.5387
 kinetic energy error for atom=    0.0002 (will be added to EATOM!!)
 
 
 POSCAR: Layer (20)                              
  positions in direct lattice
  velocities in cartesian coordinates
 exchange correlation table for  LEXCH =        8
   RHO(1)=    0.500       N(1)  =     2000
   RHO(2)=  100.500       N(2)  =     4000

 VTST: version 3.2, (02/03/18)

 CHAIN: initializing optimizer
 
 OPT: Using VASP Conjugate-Gradient optimizer
 CHAIN: Read ICHAIN            0
 
 POSCAR: Layer (20)                              
  positions in direct lattice
  velocities in cartesian coordinates
 


--------------------------------------------------------------------------------------------------------


 ion  position               nearest neighbor table
   1  1.000  1.000  0.498-  17 2.11  17 2.11  17 2.11  14 2.12  14 2.12  14 2.12
   2  0.333  0.667  0.529-  14 2.11  14 2.11  14 2.11  11 2.12  11 2.12  11 2.12
   3  1.000  1.000  0.590-  18 2.11  18 2.11  18 2.11  15 2.12  15 2.12  15 2.12
   4  0.333  0.667  0.621-  15 2.11  15 2.11  15 2.11  12 2.12  12 2.12  12 2.12
   5  1.000  1.000  0.683-  19 2.11  19 2.11  19 2.11  16 2.12  16 2.12  16 2.12
   6  0.333  0.667  0.713-  16 2.11  16 2.11  16 2.11  13 2.15  13 2.15  13 2.15
   7  0.667  0.333  0.467-  17 2.12  17 2.12  17 2.12  10 2.12  10 2.12  10 2.12
   8  0.667  0.333  0.559-  11 2.11  11 2.11  11 2.11  18 2.12  18 2.12  18 2.12
   9  0.667  0.333  0.652-  12 2.11  12 2.11  12 2.11  19 2.12  19 2.12  19 2.12
  10  1.000  1.000  0.452-   7 2.12   7 2.12   7 2.12  22 2.73  17 3.02  17 3.02  17 3.02
  11  0.000  0.000  0.544-   8 2.11   8 2.11   8 2.11   2 2.12   2 2.12   2 2.12  14 3.00  14 3.00
                            14 3.00  18 3.00  18 3.00  18 3.00
  12  0.000  0.000  0.637-   9 2.11   9 2.11   9 2.11   4 2.12   4 2.12   4 2.12  15 3.00  15 3.00
                            15 3.00  19 3.00  19 3.00  19 3.00
  13  0.000  0.000  0.730-   6 2.15   6 2.15   6 2.15  16 3.04  16 3.04  16 3.04
  14  0.667  0.333  0.513-   2 2.11   2 2.11   2 2.11   1 2.12   1 2.12   1 2.12  11 3.00  11 3.00
                            11 3.00  17 3.00  17 3.00  17 3.00
  15  0.667  0.333  0.606-   4 2.11   4 2.11   4 2.11   3 2.12   3 2.12   3 2.12  18 3.00  18 3.00
                            18 3.00  12 3.00  12 3.00  12 3.00
  16  0.667  0.333  0.698-   6 2.11   6 2.11   6 2.11   5 2.12   5 2.12   5 2.12  19 3.00  19 3.00
                            19 3.00  13 3.04  13 3.04  13 3.04
  17  0.333  0.667  0.483-   1 2.11   1 2.11   1 2.11   7 2.12   7 2.12   7 2.12  14 3.00  14 3.00
                            14 3.00  10 3.02  10 3.02  10 3.02
  18  0.333  0.667  0.575-   3 2.11   3 2.11   3 2.11   8 2.12   8 2.12   8 2.12  11 3.00  11 3.00
                            11 3.00  15 3.00  15 3.00  15 3.00
  19  0.333  0.667  0.667-   5 2.11   5 2.11   5 2.11   9 2.12   9 2.12   9 2.12  12 3.00  12 3.00
                            12 3.00  16 3.00  16 3.00  16 3.00
  20  1.000  1.000  0.250-  25 2.84  25 2.84  25 2.84
  21  0.000  0.000  0.334-  23 2.81  23 2.81  23 2.81  26 2.81  26 2.81  26 2.81
  22  0.000  0.000  0.417-  10 2.73  24 2.80  24 2.80  24 2.80
  23  0.667  0.333  0.306-  21 2.81  21 2.81  21 2.81  25 2.81  25 2.81  25 2.81
  24  0.667  0.333  0.390-  22 2.80  22 2.80  22 2.80  26 2.82  26 2.82  26 2.82
  25  0.333  0.667  0.278-  23 2.81  23 2.81  23 2.81  20 2.84  20 2.84  20 2.84
  26  0.333  0.667  0.362-  21 2.81  21 2.81  21 2.81  24 2.82  24 2.82  24 2.82
 
  Warning from LATTYP: Monoclinic adjustement (A1->A3, A2->A1, A3->A2)!
  LATTYP: Found a base centered orthorhombic cell.
 ALAT       =     2.9842867459
 B/A-ratio  =     1.7320640768
 C/A-ratio  =    26.7276701675
  
  Lattice vectors:
  
 A1 = (   2.5844879337,  -1.4921433729,   0.0000000000)
 A2 = (  -2.5844879337,  -1.4921433729,   0.0000000000)
 A3 = (  -0.0000000000,  -0.0000000000, -79.7630318286)


Analysis of symmetry for initial positions (statically):
=====================================================================
 Subroutine PRICEL returns:
 Original cell was already a primitive cell.
 

 Routine SETGRP: Setting up the symmetry group for a 
 base centered orthorhombic supercell.


 Subroutine GETGRP returns: Found  1 space group operations
 (whereof  1 operations were pure point group operations)
 out of a pool of  8 trial point group operations.


The static configuration has the point symmetry C_1 .


Analysis of symmetry for dynamics (positions and initial velocities):
=====================================================================
 Subroutine PRICEL returns:
 Original cell was already a primitive cell.
 

 Routine SETGRP: Setting up the symmetry group for a 
 base centered orthorhombic supercell.


 Subroutine GETGRP returns: Found  1 space group operations
 (whereof  1 operations were pure point group operations)
 out of a pool of  8 trial point group operations.


The dynamic configuration has the point symmetry C_1 .


Analysis of constrained symmetry for selective dynamics:
=====================================================================
 Subroutine PRICEL returns:
 Original cell was already a primitive cell.
 

 Routine SETGRP: Setting up the symmetry group for a 
 base centered orthorhombic supercell.


 Subroutine GETGRP returns: Found  1 space group operations
 (whereof  1 operations were pure point group operations)
 out of a pool of  8 trial point group operations.


The constrained configuration has the point symmetry C_1 .


 Subroutine INISYM returns: Found  1 space group operations
 (whereof  1 operations are pure point group operations),
 and found     1 'primitive' translations

 
 
 KPOINTS: K-Spacing Value to Generate K-Mesh: 0.02

Automatic generation of k-mesh.
Space group operators:
 irot       det(A)        alpha          n_x          n_y          n_z        tau_x        tau_y        tau_z
    1     1.000000     0.000001     1.000000     0.000000     0.000000     0.000000     0.000000     0.000000
 
 Subroutine IBZKPT returns following result:
 ===========================================
 
 Found     85 irreducible k-points:
 
 Following reciprocal coordinates:
            Coordinates               Weight
  0.000000  0.000000  0.000000      1.000000
  0.076923 -0.000000 -0.000000      2.000000
  0.153846 -0.000000  0.000000      2.000000
  0.230769 -0.000000  0.000000      2.000000
  0.307692  0.000000 -0.000000      2.000000
  0.384615 -0.000000 -0.000000      2.000000
  0.461538 -0.000000  0.000000      2.000000
  0.000000  0.076923 -0.000000      2.000000
  0.076923  0.076923 -0.000000      2.000000
  0.153846  0.076923 -0.000000      2.000000
  0.230769  0.076923 -0.000000      2.000000
  0.307692  0.076923 -0.000000      2.000000
  0.384615  0.076923 -0.000000      2.000000
  0.461538  0.076923 -0.000000      2.000000
 -0.461538  0.076923  0.000000      2.000000
 -0.384615  0.076923 -0.000000      2.000000
 -0.307692  0.076923 -0.000000      2.000000
 -0.230769  0.076923  0.000000      2.000000
 -0.153846  0.076923 -0.000000      2.000000
 -0.076923  0.076923 -0.000000      2.000000
  0.000000  0.153846 -0.000000      2.000000
  0.076923  0.153846 -0.000000      2.000000
  0.153846  0.153846  0.000000      2.000000
  0.230769  0.153846 -0.000000      2.000000
  0.307692  0.153846  0.000000      2.000000
  0.384615  0.153846 -0.000000      2.000000
  0.461538  0.153846 -0.000000      2.000000
 -0.461538  0.153846  0.000000      2.000000
 -0.384615  0.153846  0.000000      2.000000
 -0.307692  0.153846 -0.000000      2.000000
 -0.230769  0.153846 -0.000000      2.000000
 -0.153846  0.153846 -0.000000      2.000000
 -0.076923  0.153846 -0.000000      2.000000
 -0.000000  0.230769 -0.000000      2.000000
  0.076923  0.230769  0.000000      2.000000
  0.153846  0.230769  0.000000      2.000000
  0.230769  0.230769 -0.000000      2.000000
  0.307692  0.230769 -0.000000      2.000000
  0.384615  0.230769 -0.000000      2.000000
  0.461538  0.230769  0.000000      2.000000
 -0.461538  0.230769  0.000000      2.000000
 -0.384615  0.230769  0.000000      2.000000
 -0.307692  0.230769  0.000000      2.000000
 -0.230769  0.230769  0.000000      2.000000
 -0.153846  0.230769  0.000000      2.000000
 -0.076923  0.230769  0.000000      2.000000
 -0.000000  0.307692 -0.000000      2.000000
  0.076923  0.307692 -0.000000      2.000000
  0.153846  0.307692 -0.000000      2.000000
  0.230769  0.307692  0.000000      2.000000
  0.307692  0.307692 -0.000000      2.000000
  0.384615  0.307692 -0.000000      2.000000
  0.461538  0.307692 -0.000000      2.000000
 -0.461538  0.307692 -0.000000      2.000000
 -0.384615  0.307692  0.000000      2.000000
 -0.307692  0.307692 -0.000000      2.000000
 -0.230769  0.307692 -0.000000      2.000000
 -0.153846  0.307692 -0.000000      2.000000
 -0.076923  0.307692 -0.000000      2.000000
  0.000000  0.384615 -0.000000      2.000000
  0.076923  0.384615 -0.000000      2.000000
  0.153846  0.384615 -0.000000      2.000000
  0.230769  0.384615 -0.000000      2.000000
  0.307692  0.384615 -0.000000      2.000000
  0.384615  0.384615 -0.000000      2.000000
  0.461538  0.384615 -0.000000      2.000000
 -0.461538  0.384615 -0.000000      2.000000
 -0.384615  0.384615 -0.000000      2.000000
 -0.307692  0.384615 -0.000000      2.000000
 -0.230769  0.384615 -0.000000      2.000000
 -0.153846  0.384615 -0.000000      2.000000
 -0.076923  0.384615 -0.000000      2.000000
 -0.000000  0.461538 -0.000000      2.000000
  0.076923  0.461538  0.000000      2.000000
  0.153846  0.461538 -0.000000      2.000000
  0.230769  0.461538  0.000000      2.000000
  0.307692  0.461538  0.000000      2.000000
  0.384615  0.461538 -0.000000      2.000000
  0.461538  0.461538 -0.000000      2.000000
 -0.461538  0.461538  0.000000      2.000000
 -0.384615  0.461538  0.000000      2.000000
 -0.307692  0.461538  0.000000      2.000000
 -0.230769  0.461538  0.000000      2.000000
 -0.153846  0.461538  0.000000      2.000000
 -0.076923  0.461538  0.000000      2.000000
 
 Following cartesian coordinates:
            Coordinates               Weight
  0.000000  0.000000  0.000000      1.000000
  0.029763  0.000000 -0.000000      2.000000
  0.059527  0.000000 -0.000000      2.000000
  0.089290  0.000000 -0.000000      2.000000
  0.119053  0.000000 -0.000000      2.000000
  0.148817  0.000000 -0.000000      2.000000
  0.178580  0.000000 -0.000000      2.000000
  0.014882  0.025776 -0.000000      2.000000
  0.044645  0.025776 -0.000000      2.000000
  0.074408  0.025776 -0.000000      2.000000
  0.104172  0.025776 -0.000000      2.000000
  0.133935  0.025776 -0.000000      2.000000
  0.163699  0.025776 -0.000000      2.000000
  0.193462  0.025776 -0.000000      2.000000
 -0.163699  0.025776  0.000000      2.000000
 -0.133935  0.025776  0.000000      2.000000
 -0.104172  0.025776  0.000000      2.000000
 -0.074408  0.025776  0.000000      2.000000
 -0.044645  0.025776 -0.000000      2.000000
 -0.014882  0.025776 -0.000000      2.000000
  0.029763  0.051552 -0.000000      2.000000
  0.059527  0.051552 -0.000000      2.000000
  0.089290  0.051552 -0.000000      2.000000
  0.119053  0.051552 -0.000000      2.000000
  0.148817  0.051552 -0.000000      2.000000
  0.178580  0.051552 -0.000000      2.000000
  0.208344  0.051552 -0.000000      2.000000
 -0.148817  0.051552  0.000000      2.000000
 -0.119053  0.051552  0.000000      2.000000
 -0.089290  0.051552 -0.000000      2.000000
 -0.059527  0.051552 -0.000000      2.000000
 -0.029763  0.051552 -0.000000      2.000000
  0.000000  0.051552 -0.000000      2.000000
  0.044645  0.077328 -0.000000      2.000000
  0.074408  0.077328 -0.000000      2.000000
  0.104172  0.077328 -0.000000      2.000000
  0.133935  0.077328 -0.000000      2.000000
  0.163699  0.077328 -0.000000      2.000000
  0.193462  0.077328 -0.000000      2.000000
  0.223225  0.077328 -0.000000      2.000000
 -0.133935  0.077328 -0.000000      2.000000
 -0.104172  0.077328 -0.000000      2.000000
 -0.074408  0.077328 -0.000000      2.000000
 -0.044645  0.077328 -0.000000      2.000000
 -0.014882  0.077328 -0.000000      2.000000
  0.014882  0.077328 -0.000000      2.000000
  0.059527  0.103104 -0.000000      2.000000
  0.089290  0.103104 -0.000000      2.000000
  0.119053  0.103104 -0.000000      2.000000
  0.148817  0.103104 -0.000000      2.000000
  0.178580  0.103104 -0.000000      2.000000
  0.208344  0.103104 -0.000000      2.000000
  0.238107  0.103104 -0.000000      2.000000
 -0.119053  0.103104 -0.000000      2.000000
 -0.089290  0.103104 -0.000000      2.000000
 -0.059527  0.103104 -0.000000      2.000000
 -0.029763  0.103104 -0.000000      2.000000
  0.000000  0.103104 -0.000000      2.000000
  0.029763  0.103104 -0.000000      2.000000
  0.074408  0.128880 -0.000000      2.000000
  0.104172  0.128880 -0.000000      2.000000
  0.133935  0.128880 -0.000000      2.000000
  0.163699  0.128880 -0.000000      2.000000
  0.193462  0.128880 -0.000000      2.000000
  0.223225  0.128880 -0.000000      2.000000
  0.252989  0.128880 -0.000000      2.000000
 -0.104172  0.128880 -0.000000      2.000000
 -0.074408  0.128880 -0.000000      2.000000
 -0.044645  0.128880 -0.000000      2.000000
 -0.014882  0.128880 -0.000000      2.000000
  0.014882  0.128880 -0.000000      2.000000
  0.044645  0.128880 -0.000000      2.000000
  0.089290  0.154656 -0.000000      2.000000
  0.119053  0.154656 -0.000000      2.000000
  0.148817  0.154656 -0.000000      2.000000
  0.178580  0.154656 -0.000000      2.000000
  0.208344  0.154656 -0.000000      2.000000
  0.238107  0.154656 -0.000000      2.000000
  0.267870  0.154656 -0.000000      2.000000
 -0.089290  0.154656 -0.000000      2.000000
 -0.059527  0.154656 -0.000000      2.000000
 -0.029763  0.154656 -0.000000      2.000000
  0.000000  0.154656 -0.000000      2.000000
  0.029763  0.154656 -0.000000      2.000000
  0.059527  0.154656 -0.000000      2.000000
 


--------------------------------------------------------------------------------------------------------




 Dimension of arrays:
   k-points           NKPTS =     85   k-points in BZ     NKDIM =     85   number of bands    NBANDS=     64
   number of dos      NEDOS =    301   number of ions     NIONS =     26
   non local maximal  LDIM  =      4   non local SUM 2l+1 LMDIM =      8
   total plane-waves  NPLWV = 345600
   max r-space proj   IRMAX =      1   max aug-charges    IRDMAX= 191088
   dimension x,y,z NGX =    24 NGY =   24 NGZ =  600
   dimension x,y,z NGXF=    48 NGYF=   48 NGZF= 1200
   support grid    NGXF=    96 NGYF=   96 NGZF= 2400
   ions per type =               9  10   7
   NGX,Y,Z   is equivalent  to a cutoff of  13.37, 13.37, 12.51 a.u.
   NGXF,Y,Z  is equivalent  to a cutoff of  26.74, 26.74, 25.01 a.u.

 SYSTEM =  unknown system                          
 POSCAR =  Layer (20)                              

 Startparameter for this run:
   NWRITE =      2    write-flag & timer
   PREC   = accura    normal or accurate (medium, high low for compatibility)
   ISTART =      0    job   : 0-new  1-cont  2-samecut
   ICHARG =     11    charge: 1-file 2-atom 10-const
   ISPIN  =      1    spin polarized calculation?
   LNONCOLLINEAR =      F non collinear calculations
   LSORBIT =      F    spin-orbit coupling
   INIWAV =      1    electr: 0-lowe 1-rand  2-diag
   LASPH  =      T    aspherical Exc in radial PAW
   METAGGA=      F    non-selfconsistent MetaGGA calc.

 Electronic Relaxation 1
   ENCUT  =  520.0 eV  38.22 Ry    6.18 a.u.   5.55  5.55148.31*2*pi/ulx,y,z
   ENINI  =  520.0     initial cutoff
   ENAUG  =  605.4 eV  augmentation charge cutoff
   NELM   =    120;   NELMIN=  6; NELMDL=  0     # of ELM steps 
   EDIFF  = 0.1E-07   stopping-criterion for ELM
   LREAL  =      F    real-space projection
   NLSPLINE    = F    spline interpolate recip. space projectors
   LCOMPAT=      F    compatible to vasp.4.4
   GGA_COMPAT  = T    GGA compatible to vasp.4.4-vasp.4.6
   LMAXPAW     = -100 max onsite density
   LMAXMIX     =    2 max onsite mixed and CHGCAR
   VOSKOWN=      0    Vosko Wilk Nusair interpolation
   ROPT   =    0.00000   0.00000   0.00000
 Ionic relaxation
   EDIFFG = -.2E-01   stopping-criterion for IOM
   NSW    =      0    number of steps for IOM
   NBLOCK =      1;   KBLOCK =      1    inner block; outer block 
   IBRION =     -1    ionic relax: 0-MD 1-quasi-New 2-CG
   NFREE  =      1    steps in history (QN), initial steepest desc. (CG)
   ISIF   =      2    stress and relaxation
   IWAVPR =     10    prediction:  0-non 1-charg 2-wave 3-comb
   ISYM   =      2    0-nonsym 1-usesym 2-fastsym
   LCORR  =      T    Harris-Foulkes like correction to forces

   POTIM  = 0.5000    time-step for ionic-motion
   TEIN   =    0.0    initial temperature
   TEBEG  =    0.0;   TEEND  =   0.0 temperature during run
   SMASS  =  -3.00    Nose mass-parameter (am)
   estimated Nose-frequenzy (Omega)   =  0.10E-29 period in steps =****** mass=  -0.204E-27a.u.
   SCALEE = 1.0000    scale energy and forces
   NPACO  =    256;   APACO  = 16.0  distance and # of slots for P.C.
   PSTRESS=    0.0 pullay stress

  Mass of Ions in am
   POMASS =  16.00 24.30 26.98
  Ionic Valenz
   ZVAL   =   6.00  2.00  3.00
  Atomic Wigner-Seitz radii
   RWIGS  =  -1.00 -1.00 -1.00
  virtual crystal weights 
   VCA    =   1.00  1.00  1.00
   NELECT =      95.0000    total number of electrons
   NUPDOWN=      -1.0000    fix difference up-down

 DOS related values:
   EMIN   =  10.00;   EMAX   =-10.00  energy-range for DOS
   EFERMI =   0.00
   ISMEAR =     0;   SIGMA  =   0.05  broadening in eV -4-tet -1-fermi 0-gaus

 Electronic relaxation 2 (details)
   IALGO  =     38    algorithm
   LDIAG  =      T    sub-space diagonalisation (order eigenvalues)
   LSUBROT=      F    optimize rotation matrix (better conditioning)
   TURBO    =      0    0=normal 1=particle mesh
   IRESTART =      0    0=no restart 2=restart with 2 vectors
   NREBOOT  =      0    no. of reboots
   NMIN     =      0    reboot dimension
   EREF     =   0.00    reference energy to select bands
   IMIX   =      4    mixing-type and parameters
     AMIX     =   0.40;   BMIX     =  1.00
     AMIX_MAG =   1.60;   BMIX_MAG =  1.00
     AMIN     =   0.01
     WC   =   100.;   INIMIX=   1;  MIXPRE=   1;  MAXMIX= -45

 Intra band minimization:
   WEIMIN = 0.0000     energy-eigenvalue tresh-hold
   EBREAK =  0.39E-10  absolut break condition
   DEPER  =   0.30     relativ break condition  

   TIME   =   0.40     timestep for ELM

  volume/ion in A,a.u.               =      23.66       159.68
  Fermi-wavevector in a.u.,A,eV,Ry     =   0.878302  1.659750 10.495726  0.771414
  Thomas-Fermi vector in A             =   1.998370
 
 Write flags
   LWAVE        =      F    write WAVECAR
   LDOWNSAMPLE  =      F    k-point downsampling of WAVECAR
   LCHARG       =      T    write CHGCAR
   LVTOT        =      F    write LOCPOT, total local potential
   LVHAR        =      F    write LOCPOT, Hartree potential only
   LELF         =      F    write electronic localiz. function (ELF)
   LORBIT       =      0    0 simple, 1 ext, 2 COOP (PROOUT), +10 PAW based schemes


 Dipole corrections
   LMONO  =      F    monopole corrections only (constant potential shift)
   LDIPOL =      F    correct potential (dipole corrections)
   IDIPOL =      0    1-x, 2-y, 3-z, 4-all directions 
   EPSILON=  1.0000000 bulk dielectric constant

 Exchange correlation treatment:
   GGA     =    --    GGA type
   LEXCH   =     8    internal setting for exchange type
   VOSKOWN=      0    Vosko Wilk Nusair interpolation
   LHFCALC =     F    Hartree Fock is set to
   LHFONE  =     F    Hartree Fock one center treatment
   AEXX    =    0.0000 exact exchange contribution

 Linear response parameters
   LEPSILON=     F    determine dielectric tensor
   LRPA    =     F    only Hartree local field effects (RPA)
   LNABLA  =     F    use nabla operator in PAW spheres
   LVEL    =     F    velocity operator in full k-point grid
   LINTERFAST=   F  fast interpolation
   KINTER  =     0    interpolate to denser k-point grid
   CSHIFT  =0.1000    complex shift for real part using Kramers Kronig
   OMEGAMAX=  -1.0    maximum frequency
   DEG_THRESHOLD= 0.2000000E-02 threshold for treating states as degnerate
   RTIME   =   -0.100 relaxation time in fs
  (WPLASMAI=    0.000 imaginary part of plasma frequency in eV, 0.658/RTIME)
   DFIELD  = 0.0000000 0.0000000 0.0000000 field for delta impulse in time
 
 Orbital magnetization related:
   ORBITALMAG=     F  switch on orbital magnetization
   LCHIMAG   =     F  perturbation theory with respect to B field
   DQ        =  0.001000  dq finite difference perturbation B field
   LLRAUG    =     F  two centre corrections for induced B field



--------------------------------------------------------------------------------------------------------


 Static calculation
 charge density and potential remain constant during run
 non-spin polarized calculation
 Variant of blocked Davidson
 Davidson routine will perform the subspace rotation
 perform sub-space diagonalisation
    after iterative eigenvector-optimisation
 no mixing
 using additional bands           16
 reciprocal scheme for non local part
 use partial core corrections
 calculate Harris-corrections to forces 
   (improved forces if not selfconsistent)
 use gradient corrections 
 WARNING: stress and forces are not correct
  (second derivative of E(xc) not defined)
 use of overlap-Matrix (Vanderbilt PP)
 Gauss-broadening in eV      SIGMA  =   0.05


--------------------------------------------------------------------------------------------------------


  energy-cutoff  :      520.00
  volume of cell :      615.20
      direct lattice vectors                 reciprocal lattice vectors
     2.584487934 -1.492143373  0.000000000     0.386923842  0.000000000 -0.000000000
     0.000000000  2.984286746  0.000000000     0.193461921  0.335088443 -0.000000000
     0.000000000  0.000000000 79.763031829    -0.000000000 -0.000000000  0.012537136

  length of vectors
     2.984303893  2.984286746 79.763031829     0.386923842  0.386926065  0.012537136


 
 k-points in units of 2pi/SCALE and weight: K-Spacing Value to Generate K-Mesh: 0.02
   0.00000000  0.00000000  0.00000000       0.006
   0.02976337  0.00000000 -0.00000000       0.012
   0.05952674  0.00000000 -0.00000000       0.012
   0.08929012  0.00000000 -0.00000000       0.012
   0.11905349  0.00000000 -0.00000000       0.012
   0.14881686  0.00000000 -0.00000000       0.012
   0.17858023  0.00000000 -0.00000000       0.012
   0.01488169  0.02577603 -0.00000000       0.012
   0.04464506  0.02577603 -0.00000000       0.012
   0.07440843  0.02577603 -0.00000000       0.012
   0.10417180  0.02577603 -0.00000000       0.012
   0.13393518  0.02577603 -0.00000000       0.012
   0.16369855  0.02577603 -0.00000000       0.012
   0.19346192  0.02577603 -0.00000000       0.012
  -0.16369855  0.02577603  0.00000000       0.012
  -0.13393518  0.02577603  0.00000000       0.012
  -0.10417180  0.02577603  0.00000000       0.012
  -0.07440843  0.02577603  0.00000000       0.012
  -0.04464506  0.02577603 -0.00000000       0.012
  -0.01488169  0.02577603 -0.00000000       0.012
   0.02976337  0.05155207 -0.00000000       0.012
   0.05952674  0.05155207 -0.00000000       0.012
   0.08929012  0.05155207 -0.00000000       0.012
   0.11905349  0.05155207 -0.00000000       0.012
   0.14881686  0.05155207 -0.00000000       0.012
   0.17858023  0.05155207 -0.00000000       0.012
   0.20834361  0.05155207 -0.00000000       0.012
  -0.14881686  0.05155207  0.00000000       0.012
  -0.11905349  0.05155207  0.00000000       0.012
  -0.08929012  0.05155207 -0.00000000       0.012
  -0.05952674  0.05155207 -0.00000000       0.012
  -0.02976337  0.05155207 -0.00000000       0.012
   0.00000000  0.05155207 -0.00000000       0.012
   0.04464506  0.07732810 -0.00000000       0.012
   0.07440843  0.07732810 -0.00000000       0.012
   0.10417180  0.07732810 -0.00000000       0.012
   0.13393518  0.07732810 -0.00000000       0.012
   0.16369855  0.07732810 -0.00000000       0.012
   0.19346192  0.07732810 -0.00000000       0.012
   0.22322529  0.07732810 -0.00000000       0.012
  -0.13393518  0.07732810 -0.00000000       0.012
  -0.10417180  0.07732810 -0.00000000       0.012
  -0.07440843  0.07732810 -0.00000000       0.012
  -0.04464506  0.07732810 -0.00000000       0.012
  -0.01488169  0.07732810 -0.00000000       0.012
   0.01488169  0.07732810 -0.00000000       0.012
   0.05952674  0.10310414 -0.00000000       0.012
   0.08929012  0.10310414 -0.00000000       0.012
   0.11905349  0.10310414 -0.00000000       0.012
   0.14881686  0.10310414 -0.00000000       0.012
   0.17858023  0.10310414 -0.00000000       0.012
   0.20834361  0.10310414 -0.00000000       0.012
   0.23810698  0.10310414 -0.00000000       0.012
  -0.11905349  0.10310414 -0.00000000       0.012
  -0.08929012  0.10310414 -0.00000000       0.012
  -0.05952674  0.10310414 -0.00000000       0.012
  -0.02976337  0.10310414 -0.00000000       0.012
   0.00000000  0.10310414 -0.00000000       0.012
   0.02976337  0.10310414 -0.00000000       0.012
   0.07440843  0.12888017 -0.00000000       0.012
   0.10417180  0.12888017 -0.00000000       0.012
   0.13393518  0.12888017 -0.00000000       0.012
   0.16369855  0.12888017 -0.00000000       0.012
   0.19346192  0.12888017 -0.00000000       0.012
   0.22322529  0.12888017 -0.00000000       0.012
   0.25298867  0.12888017 -0.00000000       0.012
  -0.10417180  0.12888017 -0.00000000       0.012
  -0.07440843  0.12888017 -0.00000000       0.012
  -0.04464506  0.12888017 -0.00000000       0.012
  -0.01488169  0.12888017 -0.00000000       0.012
   0.01488169  0.12888017 -0.00000000       0.012
   0.04464506  0.12888017 -0.00000000       0.012
   0.08929012  0.15465620 -0.00000000       0.012
   0.11905349  0.15465620 -0.00000000       0.012
   0.14881686  0.15465620 -0.00000000       0.012
   0.17858023  0.15465620 -0.00000000       0.012
   0.20834361  0.15465620 -0.00000000       0.012
   0.23810698  0.15465620 -0.00000000       0.012
   0.26787035  0.15465620 -0.00000000       0.012
  -0.08929012  0.15465620 -0.00000000       0.012
  -0.05952674  0.15465620 -0.00000000       0.012
  -0.02976337  0.15465620 -0.00000000       0.012
   0.00000000  0.15465620 -0.00000000       0.012
   0.02976337  0.15465620 -0.00000000       0.012
   0.05952674  0.15465620 -0.00000000       0.012
 
 k-points in reciprocal lattice and weights: K-Spacing Value to Generate K-Mesh: 0.02
   0.00000000  0.00000000  0.00000000       0.006
   0.07692308 -0.00000000 -0.00000000       0.012
   0.15384615 -0.00000000  0.00000000       0.012
   0.23076923 -0.00000000  0.00000000       0.012
   0.30769231  0.00000000 -0.00000000       0.012
   0.38461538 -0.00000000 -0.00000000       0.012
   0.46153846 -0.00000000  0.00000000       0.012
   0.00000000  0.07692308 -0.00000000       0.012
   0.07692308  0.07692308 -0.00000000       0.012
   0.15384615  0.07692308 -0.00000000       0.012
   0.23076923  0.07692308 -0.00000000       0.012
   0.30769231  0.07692308 -0.00000000       0.012
   0.38461538  0.07692308 -0.00000000       0.012
   0.46153846  0.07692308 -0.00000000       0.012
  -0.46153846  0.07692308  0.00000000       0.012
  -0.38461538  0.07692308 -0.00000000       0.012
  -0.30769231  0.07692308 -0.00000000       0.012
  -0.23076923  0.07692308  0.00000000       0.012
  -0.15384615  0.07692308 -0.00000000       0.012
  -0.07692308  0.07692308 -0.00000000       0.012
   0.00000000  0.15384615 -0.00000000       0.012
   0.07692308  0.15384615 -0.00000000       0.012
   0.15384615  0.15384615  0.00000000       0.012
   0.23076923  0.15384615 -0.00000000       0.012
   0.30769231  0.15384615  0.00000000       0.012
   0.38461538  0.15384615 -0.00000000       0.012
   0.46153846  0.15384615 -0.00000000       0.012
  -0.46153846  0.15384615  0.00000000       0.012
  -0.38461538  0.15384615  0.00000000       0.012
  -0.30769231  0.15384615 -0.00000000       0.012
  -0.23076923  0.15384615 -0.00000000       0.012
  -0.15384615  0.15384615 -0.00000000       0.012
  -0.07692308  0.15384615 -0.00000000       0.012
  -0.00000000  0.23076923 -0.00000000       0.012
   0.07692308  0.23076923  0.00000000       0.012
   0.15384615  0.23076923  0.00000000       0.012
   0.23076923  0.23076923 -0.00000000       0.012
   0.30769231  0.23076923 -0.00000000       0.012
   0.38461538  0.23076923 -0.00000000       0.012
   0.46153846  0.23076923  0.00000000       0.012
  -0.46153846  0.23076923  0.00000000       0.012
  -0.38461538  0.23076923  0.00000000       0.012
  -0.30769231  0.23076923  0.00000000       0.012
  -0.23076923  0.23076923  0.00000000       0.012
  -0.15384615  0.23076923  0.00000000       0.012
  -0.07692308  0.23076923  0.00000000       0.012
  -0.00000000  0.30769231 -0.00000000       0.012
   0.07692308  0.30769231 -0.00000000       0.012
   0.15384615  0.30769231 -0.00000000       0.012
   0.23076923  0.30769231  0.00000000       0.012
   0.30769231  0.30769231 -0.00000000       0.012
   0.38461538  0.30769231 -0.00000000       0.012
   0.46153846  0.30769231 -0.00000000       0.012
  -0.46153846  0.30769231 -0.00000000       0.012
  -0.38461538  0.30769231  0.00000000       0.012
  -0.30769231  0.30769231 -0.00000000       0.012
  -0.23076923  0.30769231 -0.00000000       0.012
  -0.15384615  0.30769231 -0.00000000       0.012
  -0.07692308  0.30769231 -0.00000000       0.012
   0.00000000  0.38461538 -0.00000000       0.012
   0.07692308  0.38461538 -0.00000000       0.012
   0.15384615  0.38461538 -0.00000000       0.012
   0.23076923  0.38461538 -0.00000000       0.012
   0.30769231  0.38461538 -0.00000000       0.012
   0.38461538  0.38461538 -0.00000000       0.012
   0.46153846  0.38461538 -0.00000000       0.012
  -0.46153846  0.38461538 -0.00000000       0.012
  -0.38461538  0.38461538 -0.00000000       0.012
  -0.30769231  0.38461538 -0.00000000       0.012
  -0.23076923  0.38461538 -0.00000000       0.012
  -0.15384615  0.38461538 -0.00000000       0.012
  -0.07692308  0.38461538 -0.00000000       0.012
  -0.00000000  0.46153846 -0.00000000       0.012
   0.07692308  0.46153846  0.00000000       0.012
   0.15384615  0.46153846 -0.00000000       0.012
   0.23076923  0.46153846  0.00000000       0.012
   0.30769231  0.46153846  0.00000000       0.012
   0.38461538  0.46153846 -0.00000000       0.012
   0.46153846  0.46153846 -0.00000000       0.012
  -0.46153846  0.46153846  0.00000000       0.012
  -0.38461538  0.46153846  0.00000000       0.012
  -0.30769231  0.46153846  0.00000000       0.012
  -0.23076923  0.46153846  0.00000000       0.012
  -0.15384615  0.46153846  0.00000000       0.012
  -0.07692308  0.46153846  0.00000000       0.012
 
 position of ions in fractional coordinates (direct lattice) 
   0.99999996  0.99999998  0.49790770
   0.33333311  0.66666683  0.52867680
   0.99999996  0.99999999  0.59020559
   0.33333311  0.66666684  0.62099407
   0.99999996  0.99999999  0.68258551
   0.33333310  0.66666686  0.71334818
   0.66666676  0.33333306  0.46713260
   0.66666682  0.33333313  0.55943415
   0.66666682  0.33333312  0.65178660
   0.99999999  0.99999994  0.45158108
   0.00000004  0.00000001  0.54420333
   0.00000004  0.00000001  0.63653010
   0.00000011  0.00000009  0.72952843
   0.66666690  0.33333315  0.51344820
   0.66666690  0.33333315  0.60574129
   0.66666693  0.33333317  0.69812553
   0.33333315  0.66666688  0.48267962
   0.33333317  0.66666688  0.57496420
   0.33333317  0.66666689  0.66732277
   0.99999991  0.99999997  0.24966441
   0.00000014  0.00000007  0.33371808
   0.00000007  0.00000002  0.41731148
   0.66666686  0.33333298  0.30587404
   0.66666701  0.33333306  0.38959459
   0.33333301  0.66666696  0.27801990
   0.33333300  0.66666695  0.36162272
 
 position of ions in cartesian coordinates  (Angst):
   2.58448782  1.49214339 39.71462771
   0.86149541  1.49214420 42.16886456
   2.58448783  1.49214339 47.07658738
   0.86149541  1.49214421 49.53236994
   2.58448783  1.49214340 54.44508950
   0.86149537  1.49214431 56.89881395
   1.72299219 -0.00000094 37.25991233
   1.72299236 -0.00000085 44.62216430
   1.72299236 -0.00000085 51.98847538
   2.58448790  1.49214322 36.01947629
   0.00000010 -0.00000002 43.40730751
   0.00000010 -0.00000002 50.77157037
   0.00000029  0.00000010 58.18939952
   1.72299255 -0.00000088 40.95418524
   1.72299255 -0.00000088 48.31576216
   1.72299263 -0.00000087 55.68460911
   0.86149551  1.49214426 38.49998991
   0.86149555  1.49214427 45.86088770
   0.86149555  1.49214427 53.22768740
   2.58448771  1.49214341 19.91399026
   0.00000036  0.00000000 26.61836589
   0.00000019 -0.00000005 33.28602848
   1.72299245 -0.00000134 24.39744099
   1.72299285 -0.00000134 31.07524600
   0.86149515  1.49214473 22.17571038
   0.86149512  1.49214471 28.84412484
 


--------------------------------------------------------------------------------------------------------


 k-point  1 :   0.0000 0.0000 0.0000  plane waves:   16821
 k-point  2 :   0.0769-0.0000-0.0000  plane waves:   16797
 k-point  3 :   0.1538-0.0000 0.0000  plane waves:   16753
 k-point  4 :   0.2308-0.0000 0.0000  plane waves:   16640
 k-point  5 :   0.3077 0.0000-0.0000  plane waves:   16578
 k-point  6 :   0.3846-0.0000-0.0000  plane waves:   16478
 k-point  7 :   0.4615-0.0000 0.0000  plane waves:   16438
 k-point  8 :   0.0000 0.0769-0.0000  plane waves:   16797
 k-point  9 :   0.0769 0.0769-0.0000  plane waves:   16763
 k-point 10 :   0.1538 0.0769-0.0000  plane waves:   16671
 k-point 11 :   0.2308 0.0769-0.0000  plane waves:   16589
 k-point 12 :   0.3077 0.0769-0.0000  plane waves:   16558
 k-point 13 :   0.3846 0.0769-0.0000  plane waves:   16480
 k-point 14 :   0.4615 0.0769-0.0000  plane waves:   16380
 k-point 15 :  -0.4615 0.0769 0.0000  plane waves:   16480
 k-point 16 :  -0.3846 0.0769-0.0000  plane waves:   16558
 k-point 17 :  -0.3077 0.0769-0.0000  plane waves:   16589
 k-point 18 :  -0.2308 0.0769 0.0000  plane waves:   16671
 k-point 19 :  -0.1538 0.0769-0.0000  plane waves:   16763
 k-point 20 :  -0.0769 0.0769-0.0000  plane waves:   16797
 k-point 21 :   0.0000 0.1538-0.0000  plane waves:   16753
 k-point 22 :   0.0769 0.1538-0.0000  plane waves:   16671
 k-point 23 :   0.1538 0.1538 0.0000  plane waves:   16617
 k-point 24 :   0.2308 0.1538-0.0000  plane waves:   16551
 k-point 25 :   0.3077 0.1538 0.0000  plane waves:   16540
 k-point 26 :   0.3846 0.1538-0.0000  plane waves:   16428
 k-point 27 :   0.4615 0.1538-0.0000  plane waves:   16428
 k-point 28 :  -0.4615 0.1538 0.0000  plane waves:   16540
 k-point 29 :  -0.3846 0.1538 0.0000  plane waves:   16551
 k-point 30 :  -0.3077 0.1538-0.0000  plane waves:   16617
 k-point 31 :  -0.2308 0.1538-0.0000  plane waves:   16671
 k-point 32 :  -0.1538 0.1538-0.0000  plane waves:   16753
 k-point 33 :  -0.0769 0.1538-0.0000  plane waves:   16763
 k-point 34 :  -0.0000 0.2308-0.0000  plane waves:   16640
 k-point 35 :   0.0769 0.2308 0.0000  plane waves:   16589
 k-point 36 :   0.1538 0.2308 0.0000  plane waves:   16551
 k-point 37 :   0.2308 0.2308-0.0000  plane waves:   16556
 k-point 38 :   0.3077 0.2308-0.0000  plane waves:   16500
 k-point 39 :   0.3846 0.2308-0.0000  plane waves:   16524
 k-point 40 :   0.4615 0.2308 0.0000  plane waves:   16500
 k-point 41 :  -0.4615 0.2308 0.0000  plane waves:   16556
 k-point 42 :  -0.3846 0.2308 0.0000  plane waves:   16551
 k-point 43 :  -0.3077 0.2308 0.0000  plane waves:   16589
 k-point 44 :  -0.2308 0.2308 0.0000  plane waves:   16640
 k-point 45 :  -0.1538 0.2308 0.0000  plane waves:   16671
 k-point 46 :  -0.0769 0.2308 0.0000  plane waves:   16671
 k-point 47 :  -0.0000 0.3077-0.0000  plane waves:   16576
 k-point 48 :   0.0769 0.3077-0.0000  plane waves:   16558
 k-point 49 :   0.1538 0.3077-0.0000  plane waves:   16540
 k-point 50 :   0.2308 0.3077 0.0000  plane waves:   16502
 k-point 51 :   0.3077 0.3077-0.0000  plane waves:   16580
 k-point 52 :   0.3846 0.3077-0.0000  plane waves:   16580
 k-point 53 :   0.4615 0.3077-0.0000  plane waves:   16502
 k-point 54 :  -0.4615 0.3077-0.0000  plane waves:   16540
 k-point 55 :  -0.3846 0.3077 0.0000  plane waves:   16558
 k-point 56 :  -0.3077 0.3077-0.0000  plane waves:   16576
 k-point 57 :  -0.2308 0.3077-0.0000  plane waves:   16589
 k-point 58 :  -0.1538 0.3077-0.0000  plane waves:   16617
 k-point 59 :  -0.0769 0.3077-0.0000  plane waves:   16589
 k-point 60 :   0.0000 0.3846-0.0000  plane waves:   16478
 k-point 61 :   0.0769 0.3846-0.0000  plane waves:   16480
 k-point 62 :   0.1538 0.3846-0.0000  plane waves:   16428
 k-point 63 :   0.2308 0.3846-0.0000  plane waves:   16524
 k-point 64 :   0.3077 0.3846-0.0000  plane waves:   16580
 k-point 65 :   0.3846 0.3846-0.0000  plane waves:   16524
 k-point 66 :   0.4615 0.3846-0.0000  plane waves:   16428
 k-point 67 :  -0.4615 0.3846-0.0000  plane waves:   16480
 k-point 68 :  -0.3846 0.3846-0.0000  plane waves:   16478
 k-point 69 :  -0.3077 0.3846-0.0000  plane waves:   16558
 k-point 70 :  -0.2308 0.3846-0.0000  plane waves:   16551
 k-point 71 :  -0.1538 0.3846-0.0000  plane waves:   16551
 k-point 72 :  -0.0769 0.3846-0.0000  plane waves:   16558
 k-point 73 :  -0.0000 0.4615-0.0000  plane waves:   16438
 k-point 74 :   0.0769 0.4615 0.0000  plane waves:   16380
 k-point 75 :   0.1538 0.4615-0.0000  plane waves:   16428
 k-point 76 :   0.2308 0.4615 0.0000  plane waves:   16500
 k-point 77 :   0.3077 0.4615 0.0000  plane waves:   16500
 k-point 78 :   0.3846 0.4615-0.0000  plane waves:   16428
 k-point 79 :   0.4615 0.4615-0.0000  plane waves:   16380
 k-point 80 :  -0.4615 0.4615 0.0000  plane waves:   16438
 k-point 81 :  -0.3846 0.4615 0.0000  plane waves:   16482
 k-point 82 :  -0.3077 0.4615 0.0000  plane waves:   16540
 k-point 83 :  -0.2308 0.4615 0.0000  plane waves:   16560
 k-point 84 :  -0.1538 0.4615 0.0000  plane waves:   16540
 k-point 85 :  -0.0769 0.4615 0.0000  plane waves:   16482

 maximum and minimum number of plane-waves per node :      4234     4081

 maximum number of plane-waves:     16821
 maximum index in each direction: 
   IXMAX=    6   IYMAX=    5   IZMAX=  148
   IXMIN=   -6   IYMIN=   -6   IZMIN= -148


 parallel 3D FFT for wavefunctions:
    minimum data exchange during FFTs selected (reduces bandwidth)
 parallel 3D FFT for charge:
    minimum data exchange during FFTs selected (reduces bandwidth)


 total amount of memory used by VASP MPI-rank0   236580. kBytes
=======================================================================

   base      :      30000. kBytes
   nonl-proj :      70893. kBytes
   fftplans  :      27742. kBytes
   grid      :      14531. kBytes
   one-center:         21. kBytes
   wavefun   :      93393. kBytes
 
     INWAV:  cpu time    0.0000: real time    0.0000
 initial charge density was supplied:
 number of electron      94.9999999 magnetization 
 keeping initial charge density in first step


--------------------------------------------------------------------------------------------------------


 Maximum index for augmentation-charges        11845 (set IRDMAX)


--------------------------------------------------------------------------------------------------------


 First call to EWALD:  gamma=   0.208
 Maximum number of real-space cells 8x 8x 1
 Maximum number of reciprocal cells 1x 1x22

    FEWALD:  cpu time    0.0017: real time    0.0017


--------------------------------------- Iteration      1(   1)  ---------------------------------------


    POTLOK:  cpu time    0.0723: real time    0.0725
    SETDIJ:  cpu time    0.1239: real time    0.1255
     EDDAV:  cpu time   20.0189: real time   20.1803
       DOS:  cpu time    0.0043: real time    0.0051
    --------------------------------------------
      LOOP:  cpu time   20.2194: real time   20.3834

 eigenvalue-minimisations  : 11208
 total energy-change (2. order) : 0.6126032E+03  (-0.3609804E+04)
 number of electron      94.9999999 magnetization 
 augmentation part       94.9999999 magnetization 

 Free energy of the ion-electron system (eV)
  ---------------------------------------------------
  alpha Z        PSCENC =        17.29455073
  Ewald energy   TEWEN  =    216722.33484867
  -Hartree energ DENC   =   -221110.95752502
  -exchange      EXHF   =         0.00000000
  -V(xc)+E(xc)   XCENC  =         5.04242496
  PAW double counting   =      3096.53997584    -2781.35347576
  entropy T*S    EENTRO =        -0.00796365
  eigenvalues    EBANDS =       167.69064690
  atomic energy  EATOM  =      4496.01971681
  Solvation  Ediel_sol  =         0.00000000
  ---------------------------------------------------
  free energy    TOTEN  =       612.60319949 eV

  energy without entropy =      612.61116313  energy(sigma->0) =      612.60718131


--------------------------------------------------------------------------------------------------------




--------------------------------------- Iteration      1(   2)  ---------------------------------------


     EDDAV:  cpu time   24.9196: real time   24.9586
       DOS:  cpu time    0.0040: real time    0.0046
    --------------------------------------------
      LOOP:  cpu time   24.9236: real time   24.9632

 eigenvalue-minimisations  : 14800
 total energy-change (2. order) :-0.6355689E+03  (-0.5910919E+03)
 number of electron      94.9999999 magnetization 
 augmentation part       94.9999999 magnetization 

 Free energy of the ion-electron system (eV)
  ---------------------------------------------------
  alpha Z        PSCENC =        17.29455073
  Ewald energy   TEWEN  =    216722.33484867
  -Hartree energ DENC   =   -221110.95752502
  -exchange      EXHF   =         0.00000000
  -V(xc)+E(xc)   XCENC  =         5.04242496
  PAW double counting   =      3096.53997584    -2781.35347576
  entropy T*S    EENTRO =        -0.00684668
  eigenvalues    EBANDS =      -467.87937482
  atomic energy  EATOM  =      4496.01971681
  Solvation  Ediel_sol  =         0.00000000
  ---------------------------------------------------
  free energy    TOTEN  =       -22.96570527 eV

  energy without entropy =      -22.95885858  energy(sigma->0) =      -22.96228193


--------------------------------------------------------------------------------------------------------




--------------------------------------- Iteration      1(   3)  ---------------------------------------


     EDDAV:  cpu time   21.4518: real time   21.4882
       DOS:  cpu time    0.0038: real time    0.0037
    --------------------------------------------
      LOOP:  cpu time   21.4556: real time   21.4919

 eigenvalue-minimisations  : 13232
 total energy-change (2. order) :-0.1067991E+03  (-0.1057046E+03)
 number of electron      94.9999999 magnetization 
 augmentation part       94.9999999 magnetization 

 Free energy of the ion-electron system (eV)
  ---------------------------------------------------
  alpha Z        PSCENC =        17.29455073
  Ewald energy   TEWEN  =    216722.33484867
  -Hartree energ DENC   =   -221110.95752502
  -exchange      EXHF   =         0.00000000
  -V(xc)+E(xc)   XCENC  =         5.04242496
  PAW double counting   =      3096.53997584    -2781.35347576
  entropy T*S    EENTRO =        -0.00461803
  eigenvalues    EBANDS =      -574.68071918
  atomic energy  EATOM  =      4496.01971681
  Solvation  Ediel_sol  =         0.00000000
  ---------------------------------------------------
  free energy    TOTEN  =      -129.76482098 eV

  energy without entropy =     -129.76020295  energy(sigma->0) =     -129.76251196


--------------------------------------------------------------------------------------------------------




--------------------------------------- Iteration      1(   4)  ---------------------------------------


     EDDAV:  cpu time   22.4007: real time   22.4345
       DOS:  cpu time    0.0038: real time    0.0044
    --------------------------------------------
      LOOP:  cpu time   22.4046: real time   22.4389

 eigenvalue-minimisations  : 13008
 total energy-change (2. order) :-0.3416156E+01  (-0.3405092E+01)
 number of electron      94.9999999 magnetization 
 augmentation part       94.9999999 magnetization 

 Free energy of the ion-electron system (eV)
  ---------------------------------------------------
  alpha Z        PSCENC =        17.29455073
  Ewald energy   TEWEN  =    216722.33484867
  -Hartree energ DENC   =   -221110.95752502
  -exchange      EXHF   =         0.00000000
  -V(xc)+E(xc)   XCENC  =         5.04242496
  PAW double counting   =      3096.53997584    -2781.35347576
  entropy T*S    EENTRO =        -0.00512954
  eigenvalues    EBANDS =      -578.09636366
  atomic energy  EATOM  =      4496.01971681
  Solvation  Ediel_sol  =         0.00000000
  ---------------------------------------------------
  free energy    TOTEN  =      -133.18097697 eV

  energy without entropy =     -133.17584743  energy(sigma->0) =     -133.17841220


--------------------------------------------------------------------------------------------------------




--------------------------------------- Iteration      1(   5)  ---------------------------------------


     EDDAV:  cpu time   25.1858: real time   25.2402
       DOS:  cpu time    0.0043: real time    0.0043
    --------------------------------------------
      LOOP:  cpu time   25.1902: real time   25.2445

 eigenvalue-minimisations  : 14920
 total energy-change (2. order) :-0.1113356E+00  (-0.1112664E+00)
 number of electron      94.9999999 magnetization 
 augmentation part       94.9999999 magnetization 

 Free energy of the ion-electron system (eV)
  ---------------------------------------------------
  alpha Z        PSCENC =        17.29455073
  Ewald energy   TEWEN  =    216722.33484867
  -Hartree energ DENC   =   -221110.95752502
  -exchange      EXHF   =         0.00000000
  -V(xc)+E(xc)   XCENC  =         5.04242496
  PAW double counting   =      3096.53997584    -2781.35347576
  entropy T*S    EENTRO =        -0.00512191
  eigenvalues    EBANDS =      -578.20770694
  atomic energy  EATOM  =      4496.01971681
  Solvation  Ediel_sol  =         0.00000000
  ---------------------------------------------------
  free energy    TOTEN  =      -133.29231261 eV

  energy without entropy =     -133.28719070  energy(sigma->0) =     -133.28975166


--------------------------------------------------------------------------------------------------------




--------------------------------------- Iteration      1(   6)  ---------------------------------------


     EDDAV:  cpu time   32.4114: real time   32.6402
       DOS:  cpu time    0.0042: real time    0.0042
    --------------------------------------------
      LOOP:  cpu time   32.4155: real time   32.6444

 eigenvalue-minimisations  : 14624
 total energy-change (2. order) :-0.3603448E-02  (-0.3602753E-02)
 number of electron      94.9999999 magnetization 
 augmentation part       94.9999999 magnetization 

 Free energy of the ion-electron system (eV)
  ---------------------------------------------------
  alpha Z        PSCENC =        17.29455073
  Ewald energy   TEWEN  =    216722.33484867
  -Hartree energ DENC   =   -221110.95752502
  -exchange      EXHF   =         0.00000000
  -V(xc)+E(xc)   XCENC  =         5.04242496
  PAW double counting   =      3096.53997584    -2781.35347576
  entropy T*S    EENTRO =        -0.00512180
  eigenvalues    EBANDS =      -578.21131049
  atomic energy  EATOM  =      4496.01971681
  Solvation  Ediel_sol  =         0.00000000
  ---------------------------------------------------
  free energy    TOTEN  =      -133.29591606 eV

  energy without entropy =     -133.29079426  energy(sigma->0) =     -133.29335516


--------------------------------------------------------------------------------------------------------




--------------------------------------- Iteration      1(   7)  ---------------------------------------


     EDDAV:  cpu time   34.5417: real time   34.6946
       DOS:  cpu time    0.0045: real time    0.0052
    --------------------------------------------
      LOOP:  cpu time   34.5463: real time   34.6997

 eigenvalue-minimisations  : 16072
 total energy-change (2. order) :-0.1833486E-03  (-0.1833364E-03)
 number of electron      94.9999999 magnetization 
 augmentation part       94.9999999 magnetization 

 Free energy of the ion-electron system (eV)
  ---------------------------------------------------
  alpha Z        PSCENC =        17.29455073
  Ewald energy   TEWEN  =    216722.33484867
  -Hartree energ DENC   =   -221110.95752502
  -exchange      EXHF   =         0.00000000
  -V(xc)+E(xc)   XCENC  =         5.04242496
  PAW double counting   =      3096.53997584    -2781.35347576
  entropy T*S    EENTRO =        -0.00512180
  eigenvalues    EBANDS =      -578.21149384
  atomic energy  EATOM  =      4496.01971681
  Solvation  Ediel_sol  =         0.00000000
  ---------------------------------------------------
  free energy    TOTEN  =      -133.29609940 eV

  energy without entropy =     -133.29097761  energy(sigma->0) =     -133.29353851


--------------------------------------------------------------------------------------------------------




--------------------------------------- Iteration      1(   8)  ---------------------------------------


     EDDAV:  cpu time   33.8382: real time   34.0154
       DOS:  cpu time    0.0039: real time    0.0040
    --------------------------------------------
      LOOP:  cpu time   33.8420: real time   34.0194

 eigenvalue-minimisations  : 15024
 total energy-change (2. order) :-0.6779944E-05  (-0.6779595E-05)
 number of electron      94.9999999 magnetization 
 augmentation part       94.9999999 magnetization 

 Free energy of the ion-electron system (eV)
  ---------------------------------------------------
  alpha Z        PSCENC =        17.29455073
  Ewald energy   TEWEN  =    216722.33484867
  -Hartree energ DENC   =   -221110.95752502
  -exchange      EXHF   =         0.00000000
  -V(xc)+E(xc)   XCENC  =         5.04242496
  PAW double counting   =      3096.53997584    -2781.35347576
  entropy T*S    EENTRO =        -0.00512180
  eigenvalues    EBANDS =      -578.21150062
  atomic energy  EATOM  =      4496.01971681
  Solvation  Ediel_sol  =         0.00000000
  ---------------------------------------------------
  free energy    TOTEN  =      -133.29610618 eV

  energy without entropy =     -133.29098439  energy(sigma->0) =     -133.29354529


--------------------------------------------------------------------------------------------------------




--------------------------------------- Iteration      1(   9)  ---------------------------------------


     EDDAV:  cpu time   35.0878: real time   35.2900
       DOS:  cpu time    0.0043: real time    0.0057
    --------------------------------------------
      LOOP:  cpu time   35.0921: real time   35.2957

 eigenvalue-minimisations  : 15888
 total energy-change (2. order) :-0.5146712E-06  (-0.5147178E-06)
 number of electron      94.9999999 magnetization 
 augmentation part       94.9999999 magnetization 

 Free energy of the ion-electron system (eV)
  ---------------------------------------------------
  alpha Z        PSCENC =        17.29455073
  Ewald energy   TEWEN  =    216722.33484867
  -Hartree energ DENC   =   -221110.95752502
  -exchange      EXHF   =         0.00000000
  -V(xc)+E(xc)   XCENC  =         5.04242496
  PAW double counting   =      3096.53997584    -2781.35347576
  entropy T*S    EENTRO =        -0.00512180
  eigenvalues    EBANDS =      -578.21150113
  atomic energy  EATOM  =      4496.01971681
  Solvation  Ediel_sol  =         0.00000000
  ---------------------------------------------------
  free energy    TOTEN  =      -133.29610670 eV

  energy without entropy =     -133.29098490  energy(sigma->0) =     -133.29354580


--------------------------------------------------------------------------------------------------------




--------------------------------------- Iteration      1(  10)  ---------------------------------------


     EDDAV:  cpu time   27.6637: real time   27.8082
       DOS:  cpu time    0.0046: real time    0.0046
    --------------------------------------------
      LOOP:  cpu time   27.6683: real time   27.8128

 eigenvalue-minimisations  : 11584
 total energy-change (2. order) :-0.3774676E-07  (-0.3770465E-07)
 number of electron      94.9999999 magnetization 
 augmentation part       94.9999999 magnetization 

 Free energy of the ion-electron system (eV)
  ---------------------------------------------------
  alpha Z        PSCENC =        17.29455073
  Ewald energy   TEWEN  =    216722.33484867
  -Hartree energ DENC   =   -221110.95752502
  -exchange      EXHF   =         0.00000000
  -V(xc)+E(xc)   XCENC  =         5.04242496
  PAW double counting   =      3096.53997584    -2781.35347576
  entropy T*S    EENTRO =        -0.00512180
  eigenvalues    EBANDS =      -578.21150117
  atomic energy  EATOM  =      4496.01971681
  Solvation  Ediel_sol  =         0.00000000
  ---------------------------------------------------
  free energy    TOTEN  =      -133.29610674 eV

  energy without entropy =     -133.29098494  energy(sigma->0) =     -133.29354584


--------------------------------------------------------------------------------------------------------




--------------------------------------- Iteration      1(  11)  ---------------------------------------


     EDDAV:  cpu time   22.9635: real time   23.0120
       DOS:  cpu time    0.0044: real time    0.0044
    --------------------------------------------
      LOOP:  cpu time   22.9679: real time   23.0163

 eigenvalue-minimisations  :  9392
 total energy-change (2. order) :-0.4453796E-08  (-0.4483051E-08)
 number of electron      94.9999999 magnetization 
 augmentation part       94.9999999 magnetization 

 Free energy of the ion-electron system (eV)
  ---------------------------------------------------
  alpha Z        PSCENC =        17.29455073
  Ewald energy   TEWEN  =    216722.33484867
  -Hartree energ DENC   =   -221110.95752502
  -exchange      EXHF   =         0.00000000
  -V(xc)+E(xc)   XCENC  =         5.04242496
  PAW double counting   =      3096.53997584    -2781.35347576
  entropy T*S    EENTRO =        -0.00512180
  eigenvalues    EBANDS =      -578.21150118
  atomic energy  EATOM  =      4496.01971681
  Solvation  Ediel_sol  =         0.00000000
  ---------------------------------------------------
  free energy    TOTEN  =      -133.29610674 eV

  energy without entropy =     -133.29098494  energy(sigma->0) =     -133.29354584


--------------------------------------------------------------------------------------------------------




 average (electrostatic) potential at core
  the test charge radii are     0.7215  1.0714  1.0406
  (the norm of the test charge is              1.0000)
       1 -74.8710       2 -74.7978       3 -74.6554       4 -74.5819       5 -74.4382
       6 -74.4739       7 -75.0405       8 -74.7264       9 -74.5076      10 -56.8372
      11 -56.6871      12 -56.4728      13 -56.7659      14 -56.7581      15 -56.5486
      16 -56.3551      17 -56.8436      18 -56.6164      19 -56.4019      20 -78.7939
      21 -78.6701      22 -78.6295      23 -78.6553      24 -78.6742      25 -78.6588
      26 -78.6556
 
 
 
 E-fermi :   1.9495     XC(G=0):  -5.4683     alpha+bet : -7.1934


 k-point     1 :       0.0000    0.0000    0.0000
  band No.  band energies     occupation 
      1     -19.2123      2.00000
      2     -19.0209      2.00000
      3     -18.8639      2.00000
      4     -18.7126      2.00000
      5     -18.5413      2.00000
      6     -18.3561      2.00000
      7     -18.1753      2.00000
      8     -18.0015      2.00000
      9     -17.7959      2.00000
     10      -8.7260      2.00000
     11      -8.3182      2.00000
     12      -7.6709      2.00000
     13      -6.8138      2.00000
     14      -6.5036      2.00000
     15      -6.2155      2.00000
     16      -5.9176      2.00000
     17      -5.6719      2.00000
     18      -5.3861      2.00000
     19      -4.8716      2.00000
     20      -4.3998      2.00000
     21      -4.0890      2.00000
     22      -3.4866      2.00000
     23      -2.9195      2.00000
     24      -2.6743      2.00000
     25      -2.6742      2.00000
     26      -2.6348      2.00000
     27      -2.5217      2.00000
     28      -2.5216      2.00000
     29      -2.4004      2.00000
     30      -2.4004      2.00000
     31      -2.2985      2.00000
     32      -2.2984      2.00000
     33      -2.2087      2.00000
     34      -2.2087      2.00000
     35      -2.1687      2.00000
     36      -2.1200      2.00000
     37      -2.1199      2.00000
     38      -2.0220      2.00000
     39      -2.0220      2.00000
     40      -1.9043      2.00000
     41      -1.9043      2.00000
     42      -1.7514      2.00000
     43      -1.7514      2.00000
     44      -1.5664      2.00000
     45      -0.4268      2.00000
     46       0.1478      2.00000
     47       1.6449      2.00000
     48       2.8116      0.00000
     49       3.1415      0.00000
     50       3.5079      0.00000
     51       3.9780      0.00000
     52       4.4308      0.00000
     53       4.7950      0.00000
     54       5.1597      0.00000
     55       5.5099      0.00000
     56       5.7157      0.00000
     57       5.7896      0.00000
     58       5.9683      0.00000
     59       6.1591      0.00000
     60       6.1808      0.00000
     61       6.2965      0.00000
     62       6.4304      0.00000
     63       6.6092      0.00000
     64       6.8302      0.00000

 k-point     2 :       0.0769   -0.0000   -0.0000
  band No.  band energies     occupation 
      1     -19.1593      2.00000
      2     -18.9694      2.00000
      3     -18.8140      2.00000
      4     -18.6658      2.00000
      5     -18.4993      2.00000
      6     -18.3194      2.00000
      7     -18.1437      2.00000
      8     -17.9734      2.00000
      9     -17.7703      2.00000
     10      -8.5951      2.00000
     11      -8.1877      2.00000
     12      -7.5410      2.00000
     13      -6.6878      2.00000
     14      -6.4209      2.00000
     15      -6.1394      2.00000
     16      -5.8455      2.00000
     17      -5.5718      2.00000
     18      -5.3303      2.00000
     19      -4.8486      2.00000
     20      -4.3472      2.00000
     21      -4.0660      2.00000
     22      -3.5575      2.00000
     23      -3.0152      2.00000
     24      -2.8865      2.00000
     25      -2.7299      2.00000
     26      -2.7182      2.00000
     27      -2.6581      2.00000
     28      -2.6061      2.00000
     29      -2.5651      2.00000
     30      -2.5116      2.00000
     31      -2.4435      2.00000
     32      -2.4314      2.00000
     33      -2.3412      2.00000
     34      -2.3403      2.00000
     35      -2.2562      2.00000
     36      -2.2509      2.00000
     37      -2.2065      2.00000
     38      -2.1615      2.00000
     39      -2.0690      2.00000
     40      -2.0630      2.00000
     41      -1.9448      2.00000
     42      -1.9365      2.00000
     43      -1.7913      2.00000
     44      -1.4473      2.00000
     45      -0.2981      2.00000
     46       0.2806      2.00000
     47       1.7963      1.99999
     48       3.1052      0.00000
     49       3.3813      0.00000
     50       3.7479      0.00000
     51       4.2021      0.00000
     52       4.6337      0.00000
     53       4.9872      0.00000
     54       5.3619      0.00000
     55       5.7207      0.00000
     56       5.9059      0.00000
     57       6.0469      0.00000
     58       6.2225      0.00000
     59       6.3086      0.00000
     60       6.3627      0.00000
     61       6.4383      0.00000
     62       6.5679      0.00000
     63       6.7437      0.00000
     64       6.9625      0.00000

 k-point     3 :       0.1538   -0.0000    0.0000
  band No.  band energies     occupation 
      1     -19.0076      2.00000
      2     -18.8225      2.00000
      3     -18.6719      2.00000
      4     -18.5326      2.00000
      5     -18.3803      2.00000
      6     -18.2163      2.00000
      7     -18.0553      2.00000
      8     -17.8948      2.00000
      9     -17.6992      2.00000
     10      -8.2031      2.00000
     11      -7.7967      2.00000
     12      -7.1521      2.00000
     13      -6.3224      2.00000
     14      -6.1741      2.00000
     15      -5.9253      2.00000
     16      -5.6592      2.00000
     17      -5.3405      2.00000
     18      -5.1244      2.00000
     19      -4.8237      2.00000
     20      -4.3916      2.00000
     21      -3.9953      2.00000
     22      -3.7503      2.00000
     23      -3.5492      2.00000
     24      -3.3989      2.00000
     25      -3.2895      2.00000
     26      -3.2026      2.00000
     27      -3.0498      2.00000
     28      -2.9845      2.00000
     29      -2.8707      2.00000
     30      -2.8367      2.00000
     31      -2.6827      2.00000
     32      -2.6794      2.00000
     33      -2.5601      2.00000
     34      -2.4829      2.00000
     35      -2.4569      2.00000
     36      -2.3654      2.00000
     37      -2.3157      2.00000
     38      -2.2744      2.00000
     39      -2.2590      2.00000
     40      -2.1744      2.00000
     41      -2.0802      2.00000
     42      -2.0550      2.00000
     43      -1.9001      2.00000
     44      -1.0993      2.00000
     45       0.0106      2.00000
     46       0.6464      2.00000
     47       2.1872      0.00000
     48       3.6985      0.00000
     49       4.0209      0.00000
     50       4.3771      0.00000
     51       4.7722      0.00000
     52       5.1330      0.00000
     53       5.4421      0.00000
     54       5.8322      0.00000
     55       6.1607      0.00000
     56       6.3756      0.00000
     57       6.5774      0.00000
     58       6.6744      0.00000
     59       6.7353      0.00000
     60       6.7822      0.00000
     61       6.8116      0.00000
     62       6.8843      0.00000
     63       6.9747      0.00000
     64       7.0457      0.00000

 k-point     4 :       0.2308   -0.0000    0.0000
  band No.  band energies     occupation 
      1     -18.7799      2.00000
      2     -18.6032      2.00000
      3     -18.4608      2.00000
      4     -18.3348      2.00000
      5     -18.2052      2.00000
      6     -18.0669      2.00000
      7     -17.9284      2.00000
      8     -17.7827      2.00000
      9     -17.5998      2.00000
     10      -7.5520      2.00000
     11      -7.1475      2.00000
     12      -6.5071      2.00000
     13      -5.8845      2.00000
     14      -5.6932      2.00000
     15      -5.5997      2.00000
     16      -5.4422      2.00000
     17      -5.2433      2.00000
     18      -5.0220      2.00000
     19      -4.7942      2.00000
     20      -4.5837      2.00000
     21      -4.4301      2.00000
     22      -4.3106      2.00000
     23      -4.1111      2.00000
     24      -4.0411      2.00000
     25      -3.8540      2.00000
     26      -3.7841      2.00000
     27      -3.5244      2.00000
     28      -3.2570      2.00000
     29      -3.1198      2.00000
     30      -2.9964      2.00000
     31      -2.8945      2.00000
     32      -2.8414      2.00000
     33      -2.7178      2.00000
     34      -2.6513      2.00000
     35      -2.6136      2.00000
     36      -2.5207      2.00000
     37      -2.4470      2.00000
     38      -2.4279      2.00000
     39      -2.3264      2.00000
     40      -2.2188      2.00000
     41      -2.2058      2.00000
     42      -2.0493      2.00000
     43      -1.7521      2.00000
     44      -0.5190      2.00000
     45       0.4794      2.00000
     46       1.2120      2.00000
     47       2.7133      0.00000
     48       3.7616      0.00000
     49       4.2539      0.00000
     50       4.6159      0.00000
     51       4.8623      0.00000
     52       4.9153      0.00000
     53       5.1831      0.00000
     54       5.5191      0.00000
     55       5.7371      0.00000
     56       5.8477      0.00000
     57       6.0937      0.00000
     58       6.4337      0.00000
     59       6.7683      0.00000
     60       6.8744      0.00000
     61       7.1150      0.00000
     62       7.3486      0.00000
     63       7.4086      0.00000
     64       7.4731      0.00000

 k-point     5 :       0.3077    0.0000   -0.0000
  band No.  band energies     occupation 
      1     -18.5150      2.00000
      2     -18.3510      2.00000
      3     -18.2206      2.00000
      4     -18.1100      2.00000
      5     -18.0080      2.00000
      6     -17.9029      2.00000
      7     -17.7915      2.00000
      8     -17.6640      2.00000
      9     -17.4998      2.00000
     10      -6.6453      2.00000
     11      -6.2442      2.00000
     12      -5.6881      2.00000
     13      -5.6626      2.00000
     14      -5.5987      2.00000
     15      -5.4646      2.00000
     16      -5.4117      2.00000
     17      -5.2726      2.00000
     18      -5.2102      2.00000
     19      -5.0857      2.00000
     20      -4.9749      2.00000
     21      -4.8004      2.00000
     22      -4.7159      2.00000
     23      -4.6144      2.00000
     24      -4.4685      2.00000
     25      -4.0937      2.00000
     26      -3.7195      2.00000
     27      -3.5702      2.00000
     28      -3.2999      2.00000
     29      -3.1575      2.00000
     30      -3.0131      2.00000
     31      -3.0018      2.00000
     32      -2.8775      2.00000
     33      -2.8116      2.00000
     34      -2.7725      2.00000
     35      -2.6786      2.00000
     36      -2.6239      2.00000
     37      -2.5845      2.00000
     38      -2.4817      2.00000
     39      -2.3785      2.00000
     40      -2.3601      2.00000
     41      -2.3224      2.00000
     42      -2.2025      2.00000
     43      -0.9514      2.00000
     44       0.2737      2.00000
     45       1.1350      2.00000
     46       1.4344      2.00000
     47       1.7452      2.00000
     48       2.2385      0.00000
     49       2.7089      0.00000
     50       3.4198      0.00000
     51       3.6886      0.00000
     52       4.4444      0.00000
     53       5.1386      0.00000
     54       5.5644      0.00000
     55       5.7061      0.00000
     56       5.8585      0.00000
     57       6.1533      0.00000
     58       6.4390      0.00000
     59       6.6427      0.00000
     60       6.8903      0.00000
     61       7.1387      0.00000
     62       7.2203      0.00000
     63       7.3365      0.00000
     64       7.5824      0.00000

 k-point     6 :       0.3846   -0.0000   -0.0000
  band No.  band energies     occupation 
      1     -18.2670      2.00000
      2     -18.1206      2.00000
      3     -18.0079      2.00000
      4     -17.9144      2.00000
      5     -17.8339      2.00000
      6     -17.7580      2.00000
      7     -17.6738      2.00000
      8     -17.5694      2.00000
      9     -17.4316      2.00000
     10      -6.1735      2.00000
     11      -5.9529      2.00000
     12      -5.8476      2.00000
     13      -5.7563      2.00000
     14      -5.6377      2.00000
     15      -5.5517      2.00000
     16      -5.4867      2.00000
     17      -5.4436      2.00000
     18      -5.3118      2.00000
     19      -5.1888      2.00000
     20      -5.0880      2.00000
     21      -4.6857      2.00000
     22      -4.4495      2.00000
     23      -4.3025      2.00000
     24      -3.9570      2.00000
     25      -3.6209      2.00000
     26      -3.5369      2.00000
     27      -3.3167      2.00000
     28      -3.2853      2.00000
     29      -3.1471      2.00000
     30      -3.1292      2.00000
     31      -3.0157      2.00000
     32      -3.0045      2.00000
     33      -2.8991      2.00000
     34      -2.8046      2.00000
     35      -2.8031      2.00000
     36      -2.7096      2.00000
     37      -2.6061      2.00000
     38      -2.5211      2.00000
     39      -2.4848      2.00000
     40      -2.4839      2.00000
     41      -2.3256      2.00000
     42      -1.2581      2.00000
     43      -0.5795      2.00000
     44      -0.2398      2.00000
     45       0.0425      2.00000
     46       0.5007      2.00000
     47       1.2869      2.00000
     48       1.6039      2.00000
     49       1.9830      0.34409
     50       2.4052      0.00000
     51       3.1041      0.00000
     52       3.5715      0.00000
     53       4.4238      0.00000
     54       4.9677      0.00000
     55       5.7646      0.00000
     56       5.8122      0.00000
     57       5.9908      0.00000
     58       6.3457      0.00000
     59       6.4494      0.00000
     60       6.7658      0.00000
     61       6.7940      0.00000
     62       7.1170      0.00000
     63       7.1269      0.00000
     64       7.3537      0.00000

[...]
     37      -2.8947      2.00000
     38      -2.7628      2.00000
     39      -2.6490      2.00000
     40      -2.4515      2.00000
     41      -2.1170      2.00000
     42      -0.8956      2.00000
     43      -0.2081      2.00000
     44       0.1257      2.00000
     45       0.3957      2.00000
     46       0.8616      2.00000
     47       1.6314      2.00000
     48       1.9462      1.07507
     49       2.3104      0.00000
     50       2.7393      0.00000
     51       2.8954      0.00000
     52       3.2060      0.00000
     53       3.5963      0.00000
     54       3.9368      0.00000
     55       4.1183      0.00000
     56       4.7774      0.00000
     57       5.0088      0.00000
     58       5.5410      0.00000
     59       6.0073      0.00000
     60       6.1923      0.00000
     61       6.3626      0.00000
     62       6.6139      0.00000
     63       6.8490      0.00000
     64       6.9397      0.00000

 k-point    83 :      -0.2308    0.4615    0.0000
  band No.  band energies     occupation 
      1     -18.2090      2.00000
      2     -18.0653      2.00000
      3     -17.9556      2.00000
      4     -17.8649      2.00000
      5     -17.7862      2.00000
      6     -17.7125      2.00000
      7     -17.6321      2.00000
      8     -17.5318      2.00000
      9     -17.3990      2.00000
     10      -5.7449      2.00000
     11      -5.7042      2.00000
     12      -5.5542      2.00000
     13      -5.4978      2.00000
     14      -5.3935      2.00000
     15      -5.3215      2.00000
     16      -5.2323      2.00000
     17      -5.2089      2.00000
     18      -5.1209      2.00000
     19      -4.9596      2.00000
     20      -4.8284      2.00000
     21      -4.7275      2.00000
     22      -4.4668      2.00000
     23      -4.2133      2.00000
     24      -4.1714      2.00000
     25      -3.9212      2.00000
     26      -3.8495      2.00000
     27      -3.6797      2.00000
     28      -3.6380      2.00000
     29      -3.5153      2.00000
     30      -3.4755      2.00000
     31      -3.3947      2.00000
     32      -3.3337      2.00000
     33      -3.2925      2.00000
     34      -3.2237      2.00000
     35      -3.1732      2.00000
     36      -3.0350      2.00000
     37      -2.9106      2.00000
     38      -2.8001      2.00000
     39      -2.6487      2.00000
     40      -2.4420      2.00000
     41      -2.2377      2.00000
     42      -1.0064      2.00000
     43       0.3004      2.00000
     44       1.1956      2.00000
     45       1.2497      2.00000
     46       1.3611      2.00000
     47       1.6078      2.00000
     48       1.8443      1.99709
     49       2.2306      0.00000
     50       2.3043      0.00000
     51       2.4928      0.00000
     52       3.0915      0.00000
     53       3.2423      0.00000
     54       3.5652      0.00000
     55       4.0215      0.00000
     56       4.3942      0.00000
     57       4.9789      0.00000
     58       5.3250      0.00000
     59       5.6744      0.00000
     60       6.3995      0.00000
     61       6.6369      0.00000
     62       6.7688      0.00000
     63       6.8969      0.00000
     64       7.0504      0.00000

 k-point    84 :      -0.1538    0.4615    0.0000
  band No.  band energies     occupation 
      1     -18.1937      2.00000
      2     -18.0522      2.00000
      3     -17.9450      2.00000
      4     -17.8563      2.00000
      5     -17.7787      2.00000
      6     -17.7062      2.00000
      7     -17.6283      2.00000
      8     -17.5313      2.00000
      9     -17.4020      2.00000
     10      -6.0019      2.00000
     11      -5.7915      2.00000
     12      -5.7198      2.00000
     13      -5.6105      2.00000
     14      -5.5279      2.00000
     15      -5.4297      2.00000
     16      -5.3410      2.00000
     17      -5.2194      2.00000
     18      -5.1032      2.00000
     19      -5.0747      2.00000
     20      -4.7183      2.00000
     21      -4.6552      2.00000
     22      -4.3292      2.00000
     23      -4.0747      2.00000
     24      -4.0064      2.00000
     25      -3.7669      2.00000
     26      -3.7463      2.00000
     27      -3.5818      2.00000
     28      -3.5151      2.00000
     29      -3.4420      2.00000
     30      -3.3511      2.00000
     31      -3.2759      2.00000
     32      -3.2238      2.00000
     33      -3.1865      2.00000
     34      -3.1504      2.00000
     35      -3.0609      2.00000
     36      -2.9646      2.00000
     37      -2.8947      2.00000
     38      -2.7628      2.00000
     39      -2.6490      2.00000
     40      -2.4515      2.00000
     41      -2.1170      2.00000
     42      -0.8956      2.00000
     43      -0.2081      2.00000
     44       0.1257      2.00000
     45       0.3957      2.00000
     46       0.8616      2.00000
     47       1.6314      2.00000
     48       1.9462      1.07507
     49       2.3104      0.00000
     50       2.7393      0.00000
     51       2.8954      0.00000
     52       3.2060      0.00000
     53       3.5963      0.00000
     54       3.9368      0.00000
     55       4.1183      0.00000
     56       4.7774      0.00000
     57       5.0088      0.00000
     58       5.5410      0.00000
     59       6.0073      0.00000
     60       6.1924      0.00000
     61       6.3626      0.00000
     62       6.6138      0.00000
     63       6.8483      0.00000
     64       6.9344      0.00000

 k-point    85 :      -0.0769    0.4615    0.0000
  band No.  band energies     occupation 
      1     -18.1540      2.00000
      2     -18.0185      2.00000
      3     -17.9181      2.00000
      4     -17.8347      2.00000
      5     -17.7593      2.00000
      6     -17.6879      2.00000
      7     -17.6159      2.00000
      8     -17.5283      2.00000
      9     -17.4090      2.00000
     10      -6.3103      2.00000
     11      -6.0890      2.00000
     12      -5.9247      2.00000
     13      -5.8742      2.00000
     14      -5.7382      2.00000
     15      -5.6584      2.00000
     16      -5.5533      2.00000
     17      -5.4218      2.00000
     18      -5.3141      2.00000
     19      -4.7207      2.00000
     20      -4.4544      2.00000
     21      -4.3173      2.00000
     22      -4.1182      2.00000
     23      -3.8355      2.00000
     24      -3.6782      2.00000
     25      -3.5857      2.00000
     26      -3.4888      2.00000
     27      -3.4277      2.00000
     28      -3.3149      2.00000
     29      -3.2768      2.00000
     30      -3.1811      2.00000
     31      -3.1377      2.00000
     32      -3.0677      2.00000
     33      -3.0098      2.00000
     34      -2.9078      2.00000
     35      -2.8578      2.00000
     36      -2.8134      2.00000
     37      -2.7328      2.00000
     38      -2.6699      2.00000
     39      -2.5520      2.00000
     40      -2.4602      2.00000
     41      -1.7610      2.00000
     42      -1.4410      2.00000
     43      -1.0617      2.00000
     44      -0.6513      2.00000
     45      -0.3394      2.00000
     46       0.3898      2.00000
     47       0.9508      2.00000
     48       1.5996      2.00000
     49       2.1527      0.00000
     50       2.5486      0.00000
     51       2.7398      0.00000
     52       3.6262      0.00000
     53       4.0087      0.00000
     54       4.7150      0.00000
     55       5.1124      0.00000
     56       5.2268      0.00000
     57       5.3590      0.00000
     58       5.6501      0.00000
     59       6.0646      0.00000
     60       6.1744      0.00000
     61       6.5251      0.00000
     62       6.7067      0.00000
     63       6.8575      0.00000
     64       7.0918      0.00000


--------------------------------------------------------------------------------------------------------


 soft charge-density along one line, spin component           1
         0         1         2         3         4         5         6         7         8         9
 total charge-density along one line
 
 pseudopotential strength for first ion, spin component:           1
 12.929  -0.385   0.000   0.000  -0.000  -0.000  -0.000   0.000
 -0.385   0.091  -0.000  -0.000   0.000   0.000   0.000  -0.000
  0.000  -0.000  -9.294  -0.000   0.000  -0.011   0.000  -0.000
  0.000  -0.000  -0.000  -9.296   0.000   0.000  -0.011  -0.000
 -0.000   0.000   0.000   0.000  -9.294  -0.000  -0.000  -0.011
 -0.000   0.000  -0.011   0.000  -0.000   0.222  -0.000   0.000
 -0.000   0.000   0.000  -0.011  -0.000  -0.000   0.222   0.000
  0.000  -0.000  -0.000  -0.000  -0.011   0.000   0.000   0.222
 total augmentation occupancy for first ion, spin component:           1
  2.000   0.000   0.000   0.000   0.000   0.000   0.000   0.000
  0.000   0.000   0.000   0.000   0.000   0.000   0.000   0.000
  0.000   0.000   1.333  -0.000  -0.000   0.000   0.000   0.000
  0.000   0.000  -0.000   1.333   0.000   0.000   0.000   0.000
  0.000   0.000  -0.000   0.000   1.333   0.000   0.000   0.000
  0.000   0.000   0.000   0.000   0.000   0.000   0.000   0.000
  0.000   0.000   0.000   0.000   0.000   0.000   0.000   0.000
  0.000   0.000   0.000   0.000   0.000   0.000   0.000   0.000


------------------------ aborting loop because EDIFF is reached ----------------------------------------


    CHARGE:  cpu time    1.2272: real time    1.2294
    FORLOC:  cpu time    0.0184: real time    0.0185
    FORNL :  cpu time    8.6807: real time    8.6989
    STRESS:  cpu time   12.0579: real time   12.0792
    FORCOR:  cpu time    0.0946: real time    0.0948
    FORHAR:  cpu time    0.0323: real time    0.0324
    OFIELD:  cpu time    0.0012: real time    0.0012

  FORCE on cell =-STRESS in cart. coord.  units (eV):
  Direction    XX          YY          ZZ          XY          YZ          ZX
  --------------------------------------------------------------------------------------
  Alpha Z    17.29455    17.29455    17.29455
  Ewald  219206.59702219206.60373************    -0.00001    -0.00002    -0.00375
  Hartree220258.32768220258.33263************    -0.00002    -0.00002     0.00107
  E(xc)    -387.73551  -387.73559  -388.35888    -0.00000     0.00000     0.00004
  Local  ************************440043.39725    -0.00015     0.00005     0.00257
  n-local   -16.10829   -16.10780   -10.58871     0.00000    -0.00000    -0.00038
  augment    54.48583    54.48573    54.01093     0.00016    -0.00000     0.00004
  Kinetic  1382.53681  1382.53899  1380.75230    -0.00000    -0.00000     0.00064
  Fock        0.00000     0.00000     0.00000     0.00000     0.00000     0.00000
  -------------------------------------------------------------------------------------
  Total      -0.27723    -0.27465    -0.27574    -0.00002    -0.00000     0.00024
  in kB      -0.72201    -0.71527    -0.71811    -0.00005    -0.00000     0.00063
  external pressure =       -0.72 kB  Pullay stress =        0.00 kB


 VOLUME and BASIS-vectors are now :
 -----------------------------------------------------------------------------
  energy-cutoff  :      520.00
  volume of cell :      615.20
      direct lattice vectors                 reciprocal lattice vectors
     2.584487934 -1.492143373  0.000000000     0.386923842  0.000000000 -0.000000000
     0.000000000  2.984286746  0.000000000     0.193461921  0.335088443 -0.000000000
     0.000000000  0.000000000 79.763031829    -0.000000000 -0.000000000  0.012537136

  length of vectors
     2.984303893  2.984286746 79.763031829     0.386923842  0.386926065  0.012537136


 FORCES acting on ions
    electron-ion (+dipol)            ewald-force                    non-local-force                 convergence-correction
 -----------------------------------------------------------------------------------------------
   0.823E-04 -.123E-04 0.143E+04   -.466E-05 -.158E-06 -.142E+04   0.308E-04 -.607E-05 -.224E+00   -.105E-03 0.176E-04 -.461E+00
   -.231E-03 0.510E-03 0.711E+03   0.300E-04 -.587E-04 -.710E+03   -.906E-04 0.200E-03 -.269E+00   0.280E-03 -.626E-03 -.431E+00
   0.726E-04 -.146E-04 -.719E+03   -.329E-05 0.609E-07 0.720E+03   0.289E-04 -.584E-05 -.266E+00   -.945E-04 0.194E-04 -.462E+00
   -.230E-03 0.507E-03 -.143E+04   0.308E-04 -.587E-04 0.143E+04   -.897E-04 0.198E-03 -.302E+00   0.278E-03 -.622E-03 -.394E+00
   0.769E-04 -.198E-04 -.286E+04   -.211E-05 0.442E-06 0.286E+04   0.287E-04 -.732E-05 -.331E+00   -.994E-04 0.257E-04 -.492E+00
   -.261E-03 0.425E-03 -.357E+04   0.840E-04 -.527E-04 0.357E+04   -.704E-04 0.169E-03 -.198E+01   0.240E-03 -.523E-03 -.321E+00
   0.534E-03 -.421E-03 0.213E+04   -.951E-04 0.525E-04 -.214E+04   0.165E-03 -.167E-03 0.700E+00   -.584E-03 0.517E-03 -.474E+00
   0.349E-03 -.495E-03 -.431E+01   -.374E-04 0.585E-04 0.498E+01   0.136E-03 -.194E-03 -.286E+00   -.431E-03 0.607E-03 -.377E+00
   0.350E-03 -.493E-03 -.215E+04   -.365E-04 0.586E-04 0.215E+04   0.136E-03 -.193E-03 -.285E+00   -.433E-03 0.603E-03 -.475E+00
   -.313E-03 0.244E-04 0.813E+03   0.253E-03 -.144E-04 -.813E+03   0.532E-04 -.761E-05 0.521E+00   0.147E-05 -.132E-05 -.129E+00
   -.678E-05 0.570E-06 0.117E+03   0.385E-05 -.326E-06 -.117E+03   0.277E-05 -.364E-06 -.216E+00   0.358E-06 0.566E-07 -.134E+00
   -.583E-05 0.501E-06 -.597E+03   0.307E-05 -.273E-06 0.598E+03   0.240E-05 -.318E-06 -.208E+00   0.374E-06 0.529E-07 -.140E+00
   0.291E-03 -.230E-04 -.129E+04   -.243E-03 0.137E-04 0.129E+04   -.401E-04 0.681E-05 0.102E+01   -.650E-06 0.132E-05 -.467E-01
   0.343E-04 -.715E-04 0.356E+03   -.256E-04 0.511E-04 -.355E+03   -.103E-04 0.225E-04 -.224E+00   -.593E-06 0.172E-05 -.142E+00
   0.356E-04 -.717E-04 -.359E+03   -.265E-04 0.512E-04 0.359E+03   -.107E-04 0.226E-04 -.209E+00   -.591E-06 0.171E-05 -.138E+00
   0.382E-04 -.726E-04 -.107E+04   -.283E-04 0.529E-04 0.107E+04   -.109E-04 0.232E-04 -.129E+00   -.410E-06 0.136E-05 -.133E+00
   -.475E-04 0.717E-04 0.594E+03   0.312E-04 -.522E-04 -.593E+03   0.149E-04 -.226E-04 -.272E+00   0.181E-05 -.146E-05 -.147E+00
   -.471E-04 0.709E-04 -.121E+03   0.327E-04 -.507E-04 0.121E+03   0.153E-04 -.221E-04 -.211E+00   0.143E-05 -.178E-05 -.137E+00
   -.459E-04 0.711E-04 -.835E+03   0.318E-04 -.508E-04 0.836E+03   0.147E-04 -.222E-04 -.201E+00   0.144E-05 -.177E-05 -.149E+00
   0.287E-04 -.301E-05 0.134E+04   -.284E-04 0.196E-05 -.134E+04   -.491E-05 0.177E-05 -.141E+01   0.516E-08 0.115E-07 0.133E+00
   0.134E-04 -.104E-06 0.127E+04   -.148E-05 -.287E-07 -.127E+04   -.510E-05 0.195E-06 -.108E-01   0.983E-07 0.950E-09 0.570E-02
   -.404E-04 0.416E-05 0.120E+04   0.332E-04 -.214E-05 -.120E+04   0.109E-04 -.261E-05 0.390E-01   0.567E-07 -.663E-07 -.123E+00
   0.114E-04 -.121E-04 0.129E+04   -.242E-05 0.666E-05 -.129E+04   -.158E-04 0.828E-05 -.829E-03   -.114E-06 0.510E-07 0.627E-01
   0.207E-04 -.123E-04 0.122E+04   -.554E-05 0.650E-05 -.122E+04   -.142E-04 0.848E-05 -.318E-01   -.145E-07 0.507E-07 -.966E-01
   -.484E-05 0.114E-04 0.132E+04   0.975E-06 -.641E-05 -.132E+04   0.418E-05 -.750E-05 0.733E-02   0.599E-07 -.355E-07 0.102E+00
   -.756E-05 0.120E-04 0.124E+04   0.512E-05 -.651E-05 -.124E+04   0.277E-05 -.819E-05 -.147E+00   -.261E-07 -.570E-07 -.596E-01
 -----------------------------------------------------------------------------------------------
   0.696E-03 -.134E-04 0.101E+02   -.331E-13 -.865E-14 -.250E-11   0.285E-03 -.448E-05 -.493E+01   -.944E-03 0.179E-04 -.516E+01
 
 
 POSITION                                       TOTAL-FORCE (eV/Angst)
 -----------------------------------------------------------------------------------
      2.58449      1.49214     39.71463         0.000002     -0.000001      0.006947
      0.86150      1.49214     42.16886        -0.000013      0.000025      0.004725
      2.58449      1.49214     47.07659         0.000002     -0.000001      0.008511
      0.86150      1.49214     49.53237        -0.000012      0.000025     -0.003559
      2.58449      1.49214     54.44509         0.000003     -0.000001      0.001511
      0.86150      1.49214     56.89881        -0.000009      0.000018     -0.025270
      1.72299     -0.00000     37.25991         0.000018     -0.000018      0.016277
      1.72299     -0.00000     44.62216         0.000015     -0.000024      0.005437
      1.72299     -0.00000     51.98848         0.000016     -0.000024      0.000486
      2.58449      1.49214     36.01948        -0.000006      0.000001      0.015921
      0.00000     -0.00000     43.40731        -0.000001     -0.000000     -0.001660
      0.00000     -0.00000     50.77157        -0.000001     -0.000000      0.003297
      0.00000      0.00000     58.18940         0.000005     -0.000001     -0.007003
      1.72299     -0.00000     40.95419        -0.000004      0.000004     -0.008330
      1.72299     -0.00000     48.31576        -0.000004      0.000004      0.003841
      1.72299     -0.00000     55.68461        -0.000003      0.000005      0.003404
      0.86150      1.49214     38.49999        -0.000001     -0.000005      0.000639
      0.86150      1.49214     45.86089         0.000001     -0.000004      0.001827
      0.86150      1.49214     53.22769         0.000001     -0.000004      0.003880
      2.58449      1.49214     19.91399        -0.000006      0.000001     -0.003322
      0.00000      0.00000     26.61837         0.000006      0.000000     -0.007518
      0.00000     -0.00000     33.28603         0.000002     -0.000001      0.002467
      1.72299     -0.00000     24.39744        -0.000008      0.000003     -0.007666
      1.72299     -0.00000     31.07525        -0.000001      0.000003     -0.007411
      0.86150      1.49214     22.17571        -0.000001     -0.000002     -0.003929
      0.86150      1.49214     28.84412        -0.000001     -0.000003     -0.003502
 -----------------------------------------------------------------------------------
    total drift:                                0.000036      0.000000      0.008607


--------------------------------------------------------------------------------------------------------



  FREE ENERGIE OF THE ION-ELECTRON SYSTEM (eV)
  ---------------------------------------------------
  free  energy   TOTEN  =      -133.29610674 eV

  energy  without entropy=     -133.29098494  energy(sigma->0) =     -133.29354584
 


--------------------------------------------------------------------------------------------------------


    POTLOK:  cpu time    0.2286: real time    0.2300


--------------------------------------------------------------------------------------------------------


 stress matrix after NEB project (eV)
     -0.27723     -0.00002      0.00024
     -0.00002     -0.27465     -0.00000
      0.00024     -0.00000     -0.27574
  FORCES: max atom, RMS     0.025270    0.008174
  FORCE total and by dimension    0.041678    0.025270
  Stress total and by dimension    0.477830    0.277235
     LOOP+:  cpu time  325.7310: real time  327.0784
    4ORBIT:  cpu time    0.0000: real time    0.0000

 total amount of memory used by VASP MPI-rank0   236580. kBytes
=======================================================================

   base      :      30000. kBytes
   nonl-proj :      70893. kBytes
   fftplans  :      27742. kBytes
   grid      :      14531. kBytes
   one-center:         21. kBytes
   wavefun   :      93393. kBytes
 
  
  
 General timing and accounting informations for this job:
 ========================================================
  
                  Total CPU time used (sec):      346.764
                            User time (sec):      342.424
                          System time (sec):        4.340
                         Elapsed time (sec):      348.158
  
                   Maximum memory used (kb):      302224.
                   Average memory used (kb):           0.
  
                          Minor page faults:       166739
                          Major page faults:            0
                 Voluntary context switches:          309
