       N       E                     dE             d eps       ncg     rms          rms(c)
DAV:   1     0.539690846073E+03    0.53969E+03   -0.48344E+04  2950   0.134E+03
DAV:   2    -0.109830611981E+03   -0.64952E+03   -0.61531E+03  3760   0.259E+02
DAV:   3    -0.166512157398E+03   -0.56682E+02   -0.56365E+02  3470   0.834E+01
DAV:   4    -0.167284499527E+03   -0.77234E+00   -0.77081E+00  3470   0.105E+01
DAV:   5    -0.167299668543E+03   -0.15169E-01   -0.15164E-01  3600   0.142E+00    0.254E+01
DAV:   6    -0.150772480240E+03    0.16527E+02   -0.11175E+02  3430   0.336E+01    0.216E+01
DAV:   7    -0.150844317504E+03   -0.71837E-01   -0.11144E+02  3500   0.129E+01    0.111E+01
DAV:   8    -0.147229510526E+03    0.36148E+01   -0.34546E+00  3740   0.969E+00    0.775E+00
DAV:   9    -0.152033582878E+03   -0.48041E+01   -0.50003E+01  3760   0.117E+01    0.213E+01
DAV:  10    -0.145980890824E+03    0.60527E+01   -0.29048E+01  3380   0.539E+00    0.718E+00
DAV:  11    -0.145847988008E+03    0.13290E+00   -0.47322E+00  3340   0.244E+00    0.307E+00
DAV:  12    -0.146074008786E+03   -0.22602E+00   -0.63435E-01  3620   0.189E+00    0.501E+00
DAV:  13    -0.145842510299E+03    0.23150E+00   -0.65681E-02  3370   0.957E-01    0.294E+00
DAV:  14    -0.145719319830E+03    0.12319E+00   -0.24182E-01  3810   0.933E-01    0.700E-01
DAV:  15    -0.145717964350E+03    0.13555E-02   -0.98002E-03  3290   0.275E-01    0.662E-01
DAV:  16    -0.145711882403E+03    0.60819E-02   -0.34344E-03  4120   0.239E-01    0.565E-01
DAV:  17    -0.145684642892E+03    0.27240E-01   -0.44431E-02  4140   0.110E+00    0.375E-01
DAV:  18    -0.145683866703E+03    0.77619E-03   -0.12939E-02  3440   0.446E-01    0.575E-01
DAV:  19    -0.145677117432E+03    0.67493E-02   -0.33793E-03  4100   0.460E-01    0.438E-01
DAV:  20    -0.145669411708E+03    0.77057E-02   -0.92993E-03  3930   0.793E-01    0.283E-01
DAV:  21    -0.145667202831E+03    0.22089E-02   -0.51205E-03  3410   0.440E-01    0.199E-01
DAV:  22    -0.145664661001E+03    0.25418E-02   -0.34244E-03  4150   0.665E-01    0.159E-01
DAV:  23    -0.145662901664E+03    0.17593E-02   -0.28455E-03  4100   0.593E-01    0.138E-01
DAV:  24    -0.145662115347E+03    0.78632E-03   -0.30401E-03  3690   0.444E-01    0.959E-02
DAV:  25    -0.145661618896E+03    0.49645E-03   -0.28028E-03  4170   0.510E-01    0.970E-02
DAV:  26    -0.145661729783E+03   -0.11089E-03   -0.20289E-03  3320   0.189E-01    0.799E-02
DAV:  27    -0.145661743254E+03   -0.13471E-04   -0.19970E-04  3240   0.481E-02    0.878E-02
DAV:  28    -0.145661670486E+03    0.72768E-04   -0.90698E-05  3520   0.130E-01    0.859E-02
DAV:  29    -0.145661655716E+03    0.14770E-04   -0.15418E-04  4050   0.126E-01    0.878E-02
DAV:  30    -0.145661572565E+03    0.83151E-04   -0.13725E-04  3370   0.571E-02    0.561E-02
DAV:  31    -0.145661543371E+03    0.29194E-04   -0.30627E-05  2750   0.637E-02    0.485E-02
DAV:  32    -0.145661524185E+03    0.19186E-04   -0.11423E-04  3100   0.738E-02    0.276E-02
DAV:  33    -0.145661516354E+03    0.78306E-05   -0.12506E-05  2000   0.349E-02
   1 F= -.14566152E+03 E0= -.14565732E+03  d E =-.145662E+03
       N       E                     dE             d eps       ncg     rms          rms(c)
DAV:   1    -0.148435214560E+03   -0.27737E+01   -0.97402E+01  3150   0.435E+01    0.796E+00
DAV:   2    -0.149608815754E+03   -0.11736E+01   -0.96417E+00  4260   0.117E+01    0.145E+01
DAV:   3    -0.147514719775E+03    0.20941E+01   -0.13619E+01  3630   0.518E+00    0.362E+00
DAV:   4    -0.147257995740E+03    0.25672E+00   -0.60321E-01  3300   0.306E+00    0.162E+00
DAV:   5    -0.147234969491E+03    0.23026E-01   -0.25353E-01  3600   0.176E+00    0.214E+00
DAV:   6    -0.147213552684E+03    0.21417E-01   -0.28234E-01  3580   0.786E-01    0.104E+00
DAV:   7    -0.147205311935E+03    0.82407E-02   -0.29592E-02  3360   0.549E-01    0.522E-01
DAV:   8    -0.147204069878E+03    0.12421E-02   -0.17056E-02  3280   0.436E-01    0.226E-01
DAV:   9    -0.147203383313E+03    0.68656E-03   -0.22131E-03  3610   0.195E-01    0.815E-02
DAV:  10    -0.147203202552E+03    0.18076E-03   -0.71001E-04  3490   0.122E-01    0.658E-02
DAV:  11    -0.147203019051E+03    0.18350E-03   -0.32954E-04  4440   0.133E-01    0.201E-02
DAV:  12    -0.147202893446E+03    0.12560E-03   -0.19200E-04  3950   0.115E-01    0.279E-02
DAV:  13    -0.147202769843E+03    0.12360E-03   -0.68598E-05  3530   0.945E-02    0.244E-02
DAV:  14    -0.147202544799E+03    0.22504E-03   -0.16989E-04  4250   0.205E-01    0.240E-02
DAV:  15    -0.147202416199E+03    0.12860E-03   -0.24183E-04  3840   0.217E-01    0.141E-02
DAV:  16    -0.147202390691E+03    0.25508E-04   -0.26069E-04  3580   0.154E-01    0.104E-02
DAV:  17    -0.147202403875E+03   -0.13184E-04   -0.21132E-04  3050   0.535E-02    0.141E-02
DAV:  18    -0.147202397004E+03    0.68709E-05   -0.96715E-06  1900   0.286E-02
   2 F= -.14720240E+03 E0= -.14719728E+03  d E =-.154088E+01
       N       E                     dE             d eps       ncg     rms          rms(c)
DAV:   1    -0.148179009276E+03   -0.97661E+00   -0.54541E+01  3140   0.325E+01    0.577E+00
DAV:   2    -0.148021431498E+03    0.15758E+00   -0.17521E+00  3730   0.657E+00    0.640E+00
DAV:   3    -0.147830502805E+03    0.19093E+00   -0.22000E+00  3770   0.399E+00    0.425E+00
DAV:   4    -0.147524041962E+03    0.30646E+00   -0.35820E-01  3440   0.273E+00    0.166E+00
DAV:   5    -0.147727427353E+03   -0.20339E+00   -0.16886E+00  4120   0.221E+00    0.545E+00
DAV:   6    -0.147495474012E+03    0.23195E+00   -0.59628E-01  4100   0.161E+00    0.762E-01
DAV:   7    -0.147493687165E+03    0.17868E-02   -0.53452E-02  3290   0.703E-01    0.415E-01
DAV:   8    -0.147493172232E+03    0.51493E-03   -0.73623E-03  3310   0.222E-01    0.107E-01
DAV:   9    -0.147493242158E+03   -0.69926E-04   -0.31288E-03  3320   0.126E-01    0.208E-01
DAV:  10    -0.147493136049E+03    0.10611E-03   -0.21607E-03  3320   0.939E-02    0.922E-02
DAV:  11    -0.147493090517E+03    0.45531E-04   -0.39513E-04  3740   0.582E-02    0.236E-02
DAV:  12    -0.147493082827E+03    0.76904E-05   -0.60674E-05  3180   0.281E-02
   3 F= -.14749308E+03 E0= -.14748757E+03  d E =-.183157E+01
       N       E                     dE             d eps       ncg     rms          rms(c)
DAV:   1    -0.148666236197E+03   -0.11731E+01   -0.49475E+01  2950   0.277E+01    0.504E+00
DAV:   2    -0.149807350799E+03   -0.11411E+01   -0.79980E+00  3450   0.875E+00    0.121E+01
DAV:   3    -0.148408059977E+03    0.13993E+01   -0.11560E+01  3910   0.522E+00    0.310E+00
DAV:   4    -0.148292993284E+03    0.11507E+00   -0.24436E-01  3310   0.205E+00    0.194E+00
DAV:   5    -0.148301559358E+03   -0.85661E-02   -0.14327E-01  3850   0.149E+00    0.224E+00
DAV:   6    -0.148264344979E+03    0.37214E-01   -0.11008E-01  3880   0.130E+00    0.106E+00
DAV:   7    -0.148257520022E+03    0.68250E-02   -0.21498E-02  3300   0.452E-01    0.557E-01
DAV:   8    -0.148255481610E+03    0.20384E-02   -0.10359E-02  3220   0.364E-01    0.261E-01
DAV:   9    -0.148254971211E+03    0.51040E-03   -0.27288E-03  3310   0.152E-01    0.750E-02
DAV:  10    -0.148254941876E+03    0.29335E-04   -0.37437E-04  3300   0.686E-02    0.238E-02
DAV:  11    -0.148254938559E+03    0.33161E-05   -0.46790E-05  3200   0.297E-02
   4 F= -.14825494E+03 E0= -.14824851E+03  d E =-.761856E+00
       N       E                     dE             d eps       ncg     rms          rms(c)
DAV:   1    -0.149981658499E+03   -0.17267E+01   -0.38441E+02  3060   0.771E+01    0.104E+01
DAV:   2    -0.149289518672E+03    0.69214E+00   -0.20014E+01  3310   0.151E+01    0.449E+00
DAV:   3    -0.149037294581E+03    0.25222E+00   -0.16805E+00  3300   0.473E+00    0.204E+00
DAV:   4    -0.148917251990E+03    0.12004E+00   -0.60739E-01  3550   0.308E+00    0.151E+00
DAV:   5    -0.148873478065E+03    0.43774E-01   -0.14201E-01  3280   0.141E+00    0.517E-01
DAV:   6    -0.148868936343E+03    0.45417E-02   -0.44025E-02  3220   0.670E-01    0.331E-01
DAV:   7    -0.148866475728E+03    0.24606E-02   -0.56437E-03  3250   0.274E-01    0.189E-01
DAV:   8    -0.148865732328E+03    0.74340E-03   -0.18851E-03  4000   0.334E-01    0.118E-01
DAV:   9    -0.148865409741E+03    0.32259E-03   -0.22969E-03  3850   0.304E-01    0.646E-02
DAV:  10    -0.148865354202E+03    0.55539E-04   -0.74258E-04  3360   0.102E-01    0.509E-02
DAV:  11    -0.148865302371E+03    0.51831E-04   -0.30982E-04  3330   0.613E-02    0.261E-02
DAV:  12    -0.148865270926E+03    0.31445E-04   -0.76402E-05  3460   0.679E-02    0.169E-02
DAV:  13    -0.148865264421E+03    0.65046E-05   -0.45936E-05  3130   0.382E-02
   5 F= -.14886526E+03 E0= -.14885940E+03  d E =-.137218E+01
       N       E                     dE             d eps       ncg     rms          rms(c)
DAV:   1    -0.149429851420E+03   -0.56458E+00   -0.79736E+01  2960   0.364E+01    0.564E+00
DAV:   2    -0.149146677034E+03    0.28317E+00   -0.46163E+00  3380   0.876E+00    0.192E+00
DAV:   3    -0.149068211264E+03    0.78466E-01   -0.38103E-01  3390   0.260E+00    0.154E+00
DAV:   4    -0.149028764178E+03    0.39447E-01   -0.11784E-01  3730   0.162E+00    0.666E-01
DAV:   5    -0.149010010453E+03    0.18754E-01   -0.65644E-02  3340   0.109E+00    0.448E-01
DAV:   6    -0.149007545125E+03    0.24653E-02   -0.14092E-02  3220   0.433E-01    0.187E-01
DAV:   7    -0.149007318131E+03    0.22699E-03   -0.37811E-03  3340   0.221E-01    0.937E-02
DAV:   8    -0.149007082443E+03    0.23569E-03   -0.44095E-04  3790   0.155E-01    0.373E-02
DAV:   9    -0.149007091500E+03   -0.90569E-05   -0.27232E-04  3290   0.713E-02    0.289E-02
DAV:  10    -0.149007079626E+03    0.11874E-04   -0.62754E-05  3140   0.414E-02    0.123E-02
DAV:  11    -0.149007083677E+03   -0.40506E-05   -0.47081E-05  3250   0.316E-02
   6 F= -.14900708E+03 E0= -.14900163E+03  d E =-.151400E+01
       N       E                     dE             d eps       ncg     rms          rms(c)
DAV:   1    -0.149588652398E+03   -0.58157E+00   -0.30838E+01  2940   0.221E+01    0.228E+00
DAV:   2    -0.149634049815E+03   -0.45397E-01   -0.15952E+00  3340   0.508E+00    0.159E+00
DAV:   3    -0.149585372894E+03    0.48677E-01   -0.14997E-01  3420   0.178E+00    0.668E-01
DAV:   4    -0.149581644517E+03    0.37284E-02   -0.80931E-02  3260   0.996E-01    0.338E-01
DAV:   5    -0.149579316239E+03    0.23283E-02   -0.58270E-03  3850   0.497E-01    0.156E-01
DAV:   6    -0.149578565994E+03    0.75025E-03   -0.28815E-03  3360   0.298E-01    0.780E-02
DAV:   7    -0.149578115165E+03    0.45083E-03   -0.56163E-04  4140   0.226E-01    0.447E-02
DAV:   8    -0.149577948433E+03    0.16673E-03   -0.69608E-04  3360   0.176E-01    0.351E-02
DAV:   9    -0.149577910094E+03    0.38338E-04   -0.21676E-04  3350   0.799E-02    0.268E-02
DAV:  10    -0.149577879345E+03    0.30750E-04   -0.11683E-04  3290   0.601E-02    0.161E-02
DAV:  11    -0.149577871756E+03    0.75890E-05   -0.29003E-05  2690   0.349E-02
   7 F= -.14957787E+03 E0= -.14957324E+03  d E =-.570788E+00
       N       E                     dE             d eps       ncg     rms          rms(c)
DAV:   1    -0.150488006968E+03   -0.91013E+00   -0.27354E+02  2940   0.661E+01    0.758E+00
DAV:   2    -0.150952591067E+03   -0.46458E+00   -0.21329E+01  3440   0.156E+01    0.448E+00
DAV:   3    -0.150615540571E+03    0.33705E+00   -0.17466E+00  3380   0.441E+00    0.223E+00
DAV:   4    -0.150538902969E+03    0.76638E-01   -0.66655E-01  3320   0.281E+00    0.829E-01
DAV:   5    -0.150500431195E+03    0.38472E-01   -0.12109E-01  3340   0.151E+00    0.483E-01
DAV:   6    -0.150487830526E+03    0.12601E-01   -0.57007E-02  3470   0.107E+00    0.315E-01
DAV:   7    -0.150482308165E+03    0.55224E-02   -0.12596E-02  3460   0.579E-01    0.175E-01
DAV:   8    -0.150477414987E+03    0.48932E-02   -0.77524E-03  3850   0.643E-01    0.739E-02
DAV:   9    -0.150475316008E+03    0.20990E-02   -0.42006E-03  3760   0.454E-01    0.563E-02
DAV:  10    -0.150474527042E+03    0.78897E-03   -0.19627E-03  3440   0.281E-01    0.526E-02
DAV:  11    -0.150473705878E+03    0.82116E-03   -0.78629E-04  4540   0.265E-01    0.319E-02
DAV:  12    -0.150473186704E+03    0.51917E-03   -0.83636E-04  3920   0.245E-01    0.255E-02
DAV:  13    -0.150472951112E+03    0.23559E-03   -0.68386E-04  3460   0.158E-01    0.235E-02
DAV:  14    -0.150472496288E+03    0.45482E-03   -0.33680E-04  4750   0.256E-01    0.216E-02
DAV:  15    -0.150472243204E+03    0.25308E-03   -0.37385E-04  3710   0.200E-01    0.151E-02
DAV:  16    -0.150471967990E+03    0.27521E-03   -0.38886E-04  4540   0.299E-01    0.136E-02
DAV:  17    -0.150471840250E+03    0.12774E-03   -0.55038E-04  3770   0.319E-01    0.748E-03
DAV:  18    -0.150471903757E+03   -0.63507E-04   -0.72673E-04  3310   0.103E-01    0.144E-02
DAV:  19    -0.150471905314E+03   -0.15567E-05   -0.52300E-05  3110   0.279E-02
   8 F= -.15047191E+03 E0= -.15046919E+03  d E =-.146482E+01
       N       E                     dE             d eps       ncg     rms          rms(c)
DAV:   1    -0.151305362946E+03   -0.83346E+00   -0.65155E+01  2940   0.338E+01    0.391E+00
DAV:   2    -0.151203607397E+03    0.10176E+00   -0.28145E+00  3430   0.633E+00    0.139E+00
DAV:   3    -0.151170043909E+03    0.33563E-01   -0.13909E-01  3450   0.149E+00    0.771E-01
DAV:   4    -0.151146576100E+03    0.23468E-01   -0.73393E-02  3520   0.120E+00    0.314E-01
DAV:   5    -0.151139476980E+03    0.70991E-02   -0.16756E-02  3500   0.583E-01    0.129E-01
DAV:   6    -0.151134082878E+03    0.53941E-02   -0.47907E-03  3470   0.346E-01    0.140E-01
DAV:   7    -0.151129758065E+03    0.43248E-02   -0.14913E-03  4040   0.334E-01    0.966E-02
DAV:   8    -0.151119881646E+03    0.98764E-02   -0.61819E-03  4370   0.829E-01    0.832E-02
DAV:   9    -0.151113111293E+03    0.67704E-02   -0.87795E-03  4130   0.911E-01    0.722E-02
DAV:  10    -0.151107515404E+03    0.55959E-02   -0.91233E-03  4440   0.121E+00    0.489E-02
DAV:  11    -0.151106934227E+03    0.58118E-03   -0.90418E-03  3480   0.545E-01    0.573E-02
DAV:  12    -0.151105761293E+03    0.11729E-02   -0.18222E-03  3820   0.437E-01    0.347E-02
DAV:  13    -0.151104296104E+03    0.14652E-02   -0.20499E-03  4900   0.808E-01    0.330E-02
DAV:  14    -0.151103932966E+03    0.36314E-03   -0.20847E-03  3670   0.541E-01    0.327E-02
DAV:  15    -0.151104030394E+03   -0.97428E-04   -0.18797E-03  3350   0.248E-01    0.208E-02
DAV:  16    -0.151104066363E+03   -0.35969E-04   -0.46125E-04  3300   0.744E-02    0.311E-02
DAV:  17    -0.151104048060E+03    0.18303E-04   -0.87590E-05  3260   0.616E-02    0.131E-02
DAV:  18    -0.151104055538E+03   -0.74778E-05   -0.76054E-05  3220   0.593E-02
   9 F= -.15110406E+03 E0= -.15110293E+03  d E =-.632150E+00
       N       E                     dE             d eps       ncg     rms          rms(c)
DAV:   1    -0.151463490712E+03   -0.35944E+00   -0.47065E+01  2940   0.292E+01    0.331E+00
DAV:   2    -0.151375949680E+03    0.87541E-01   -0.19903E+00  3460   0.543E+00    0.114E+00
DAV:   3    -0.151350654239E+03    0.25295E-01   -0.10811E-01  3420   0.133E+00    0.651E-01
DAV:   4    -0.151332873881E+03    0.17780E-01   -0.57618E-02  3590   0.115E+00    0.266E-01
DAV:   5    -0.151327884725E+03    0.49892E-02   -0.13069E-02  3500   0.504E-01    0.133E-01
DAV:   6    -0.151323643073E+03    0.42417E-02   -0.60085E-03  3490   0.349E-01    0.135E-01
DAV:   7    -0.151320334064E+03    0.33090E-02   -0.12118E-03  4560   0.371E-01    0.916E-02
DAV:   8    -0.151313483561E+03    0.68505E-02   -0.49639E-03  4660   0.892E-01    0.665E-02
DAV:   9    -0.151307499187E+03    0.59844E-02   -0.88558E-03  4560   0.130E+00    0.555E-02
DAV:  10    -0.151305599361E+03    0.18998E-02   -0.73228E-03  3820   0.883E-01    0.448E-02
DAV:  11    -0.151305174579E+03    0.42478E-03   -0.44427E-03  3470   0.381E-01    0.613E-02
DAV:  12    -0.151304531793E+03    0.64279E-03   -0.63825E-04  4110   0.298E-01    0.324E-02
DAV:  13    -0.151303371285E+03    0.11605E-02   -0.13020E-03  5260   0.724E-01    0.406E-02
DAV:  14    -0.151303060245E+03    0.31104E-03   -0.14758E-03  4000   0.460E-01    0.265E-02
DAV:  15    -0.151303154079E+03   -0.93834E-04   -0.15974E-03  3450   0.187E-01    0.313E-02
DAV:  16    -0.151303156658E+03   -0.25790E-05   -0.19074E-04  3380   0.612E-02    0.320E-02
DAV:  17    -0.151303151194E+03    0.54636E-05   -0.13531E-04  3590   0.619E-02    0.286E-02
DAV:  18    -0.151303136715E+03    0.14479E-04   -0.11866E-04  3640   0.605E-02    0.203E-02
DAV:  19    -0.151303132760E+03    0.39546E-05   -0.19577E-05  2550   0.427E-02
  10 F= -.15130313E+03 E0= -.15130120E+03  d E =-.831227E+00
       N       E                     dE             d eps       ncg     rms          rms(c)
DAV:   1    -0.151855132509E+03   -0.55200E+00   -0.14695E+01  3040   0.166E+01    0.218E+00
DAV:   2    -0.151784087258E+03    0.71045E-01   -0.39333E-01  3570   0.260E+00    0.113E+00
DAV:   3    -0.151760596655E+03    0.23491E-01   -0.58716E-02  3420   0.956E-01    0.483E-01
DAV:   4    -0.151755277438E+03    0.53192E-02   -0.22928E-02  3530   0.561E-01    0.151E-01
DAV:   5    -0.151754637016E+03    0.64042E-03   -0.30473E-03  3500   0.223E-01    0.610E-02
DAV:   6    -0.151754539555E+03    0.97462E-04   -0.11802E-03  3480   0.130E-01    0.518E-02
DAV:   7    -0.151754451714E+03    0.87841E-04   -0.19121E-04  4120   0.714E-02    0.262E-02
DAV:   8    -0.151754350845E+03    0.10087E-03   -0.11695E-04  3820   0.664E-02    0.134E-02
DAV:   9    -0.151754252772E+03    0.98073E-04   -0.55729E-05  3340   0.678E-02    0.988E-03
DAV:  10    -0.151754148481E+03    0.10429E-03   -0.11648E-04  3950   0.110E-01    0.138E-02
DAV:  11    -0.151754084155E+03    0.64326E-04   -0.10269E-04  3750   0.949E-02    0.163E-02
DAV:  12    -0.151754039930E+03    0.44225E-04   -0.10618E-04  3890   0.999E-02    0.670E-03
DAV:  13    -0.151754021029E+03    0.18901E-04   -0.61021E-05  3350   0.708E-02    0.876E-03
DAV:  14    -0.151754001705E+03    0.19323E-04   -0.20831E-05  2640   0.692E-02    0.418E-03
DAV:  15    -0.151753984037E+03    0.17668E-04   -0.25228E-05  3030   0.101E-01    0.567E-03
DAV:  16    -0.151753984737E+03   -0.69994E-06   -0.62302E-05  3210   0.522E-02
  11 F= -.15175398E+03 E0= -.15175164E+03  d E =-.450852E+00
       N       E                     dE             d eps       ncg     rms          rms(c)
DAV:   1    -0.152063359730E+03   -0.30938E+00   -0.18183E+01  3080   0.184E+01    0.239E+00
DAV:   2    -0.151977183830E+03    0.86176E-01   -0.50507E-01  3570   0.282E+00    0.126E+00
DAV:   3    -0.151946006392E+03    0.31177E-01   -0.85078E-02  3350   0.111E+00    0.542E-01
DAV:   4    -0.151938067294E+03    0.79391E-02   -0.38516E-02  3540   0.648E-01    0.164E-01
DAV:   5    -0.151936830192E+03    0.12371E-02   -0.62218E-03  3430   0.253E-01    0.710E-02
DAV:   6    -0.151936449256E+03    0.38094E-03   -0.13407E-03  3530   0.142E-01    0.512E-02
DAV:   7    -0.151936253280E+03    0.19598E-03   -0.27651E-04  3850   0.818E-02    0.336E-02
DAV:   8    -0.151935944385E+03    0.30890E-03   -0.28639E-04  4370   0.111E-01    0.208E-02
DAV:   9    -0.151935651679E+03    0.29271E-03   -0.20847E-04  3820   0.120E-01    0.161E-02
DAV:  10    -0.151935430285E+03    0.22139E-03   -0.20145E-04  4420   0.136E-01    0.152E-02
DAV:  11    -0.151935206133E+03    0.22415E-03   -0.24859E-04  4250   0.181E-01    0.182E-02
DAV:  12    -0.151935102421E+03    0.10371E-03   -0.27638E-04  3940   0.149E-01    0.116E-02
DAV:  13    -0.151935029269E+03    0.73151E-04   -0.12067E-04  3580   0.130E-01    0.962E-03
DAV:  14    -0.151934969801E+03    0.59468E-04   -0.85123E-05  4080   0.134E-01    0.853E-03
DAV:  15    -0.151934936618E+03    0.33183E-04   -0.61042E-05  3370   0.117E-01    0.625E-03
DAV:  16    -0.151934924157E+03    0.12461E-04   -0.72431E-05  3730   0.113E-01    0.358E-03
DAV:  17    -0.151934933950E+03   -0.97931E-05   -0.10992E-04  3180   0.391E-02    0.873E-03
DAV:  18    -0.151934933796E+03    0.15391E-06   -0.36739E-06  2050   0.729E-03
  12 F= -.15193493E+03 E0= -.15193251E+03  d E =-.631801E+00
       N       E                     dE             d eps       ncg     rms          rms(c)
DAV:   1    -0.151935883195E+03   -0.94924E-03   -0.51998E-02  3080   0.983E-01    0.127E-01
DAV:   2    -0.151935644568E+03    0.23863E-03   -0.15954E-03  3560   0.154E-01    0.679E-02
DAV:   3    -0.151935555661E+03    0.88907E-04   -0.22204E-04  3390   0.588E-02    0.306E-02
DAV:   4    -0.151935530746E+03    0.24915E-04   -0.12394E-04  3510   0.384E-02    0.910E-03
DAV:   5    -0.151935527375E+03    0.33716E-05   -0.19547E-05  2310   0.148E-02    0.444E-03
DAV:   6    -0.151935526005E+03    0.13696E-05   -0.67792E-06  2100   0.116E-02
  13 F= -.15193553E+03 E0= -.15193314E+03  d E =-.632393E+00
       N       E                     dE             d eps       ncg     rms          rms(c)
DAV:   1    -0.152020815384E+03   -0.85288E-01   -0.29634E+00  2970   0.730E+00    0.984E-01
DAV:   2    -0.152008343628E+03    0.12472E-01   -0.14876E-01  3420   0.145E+00    0.217E-01
DAV:   3    -0.152006737651E+03    0.16060E-02   -0.49789E-03  3510   0.308E-01    0.103E-01
DAV:   4    -0.152005642864E+03    0.10948E-02   -0.16949E-03  3600   0.231E-01    0.578E-02
DAV:   5    -0.152005031080E+03    0.61178E-03   -0.91957E-04  4090   0.191E-01    0.307E-02
DAV:   6    -0.152004586502E+03    0.44458E-03   -0.43793E-04  3820   0.141E-01    0.311E-02
DAV:   7    -0.152004189943E+03    0.39656E-03   -0.19220E-04  3860   0.119E-01    0.218E-02
DAV:   8    -0.152003396595E+03    0.79335E-03   -0.72728E-04  4670   0.315E-01    0.226E-02
DAV:   9    -0.152003144090E+03    0.25250E-03   -0.59368E-04  3950   0.194E-01    0.217E-02
DAV:  10    -0.152002851063E+03    0.29303E-03   -0.27074E-04  4540   0.238E-01    0.175E-02
DAV:  11    -0.152002675848E+03    0.17521E-03   -0.23306E-04  4110   0.211E-01    0.144E-02
DAV:  12    -0.152002535744E+03    0.14010E-03   -0.24434E-04  4610   0.228E-01    0.123E-02
DAV:  13    -0.152002478396E+03    0.57347E-04   -0.22014E-04  3450   0.156E-01    0.878E-03
DAV:  14    -0.152002435723E+03    0.42674E-04   -0.10008E-04  4300   0.169E-01    0.497E-03
DAV:  15    -0.152002443324E+03   -0.76013E-05   -0.15771E-04  3240   0.801E-02    0.553E-03
DAV:  16    -0.152002448642E+03   -0.53178E-05   -0.59292E-05  3110   0.279E-02
  14 F= -.15200245E+03 E0= -.15200008E+03  d E =-.669226E-01
       N       E                     dE             d eps       ncg     rms          rms(c)
DAV:   1    -0.152079910786E+03   -0.77467E-01   -0.67745E+00  2970   0.111E+01    0.149E+00
DAV:   2    -0.152051980027E+03    0.27931E-01   -0.34711E-01  3400   0.224E+00    0.336E-01
DAV:   3    -0.152048203175E+03    0.37769E-02   -0.11784E-02  3460   0.492E-01    0.162E-01
DAV:   4    -0.152045703747E+03    0.24994E-02   -0.46425E-03  3610   0.376E-01    0.965E-02
DAV:   5    -0.152044588677E+03    0.11151E-02   -0.20101E-03  3900   0.289E-01    0.547E-02
DAV:   6    -0.152043413319E+03    0.11754E-02   -0.12607E-03  4360   0.290E-01    0.479E-02
DAV:   7    -0.152042592717E+03    0.82060E-03   -0.56702E-04  3560   0.191E-01    0.347E-02
DAV:   8    -0.152040793043E+03    0.17997E-02   -0.13410E-03  4700   0.522E-01    0.329E-02
DAV:   9    -0.152039899289E+03    0.89375E-03   -0.14174E-03  4270   0.453E-01    0.298E-02
DAV:  10    -0.152039374796E+03    0.52449E-03   -0.11055E-03  4430   0.395E-01    0.312E-02
DAV:  11    -0.152038875943E+03    0.49885E-03   -0.50590E-04  4430   0.399E-01    0.193E-02
DAV:  12    -0.152038596416E+03    0.27953E-03   -0.54540E-04  3830   0.320E-01    0.204E-02
DAV:  13    -0.152038353453E+03    0.24296E-03   -0.46924E-04  4790   0.377E-01    0.166E-02
DAV:  14    -0.152038296329E+03    0.57124E-04   -0.52906E-04  3600   0.282E-01    0.104E-02
DAV:  15    -0.152038346295E+03   -0.49966E-04   -0.61854E-04  3220   0.104E-01    0.233E-02
DAV:  16    -0.152038345832E+03    0.46326E-06   -0.30868E-05  2870   0.212E-02
  15 F= -.15203835E+03 E0= -.15203615E+03  d E =-.102820E+00
       N       E                     dE             d eps       ncg     rms          rms(c)
DAV:   1    -0.152084410370E+03   -0.46064E-01   -0.56931E+00  2960   0.988E+00    0.421E-01
DAV:   2    -0.152093787838E+03   -0.93775E-02   -0.13410E-01  3430   0.141E+00    0.217E-01
DAV:   3    -0.152092762665E+03    0.10252E-02   -0.24748E-03  3510   0.214E-01    0.141E-01
DAV:   4    -0.152092197824E+03    0.56484E-03   -0.28003E-03  3420   0.294E-01    0.506E-02
DAV:   5    -0.152092158160E+03    0.39664E-04   -0.10955E-03  3460   0.122E-01    0.524E-02
DAV:   6    -0.152092102557E+03    0.55603E-04   -0.10642E-04  3370   0.452E-02    0.290E-02
DAV:   7    -0.152092030399E+03    0.72158E-04   -0.11166E-04  3410   0.541E-02    0.149E-02
DAV:   8    -0.152091964365E+03    0.66034E-04   -0.27557E-05  2600   0.606E-02    0.226E-02
DAV:   9    -0.152091893107E+03    0.71258E-04   -0.30835E-05  2830   0.764E-02    0.170E-02
DAV:  10    -0.152091796261E+03    0.96846E-04   -0.77036E-05  4100   0.127E-01    0.844E-03
DAV:  11    -0.152091655151E+03    0.14111E-03   -0.15686E-04  4520   0.256E-01    0.141E-02
DAV:  12    -0.152091612955E+03    0.42196E-04   -0.27388E-04  3900   0.215E-01    0.190E-02
DAV:  13    -0.152091612850E+03    0.10507E-06   -0.22209E-04  3340   0.640E-02    0.133E-02
DAV:  14    -0.152091608546E+03    0.43035E-05   -0.20278E-05  2450   0.244E-02
  16 F= -.15209161E+03 E0= -.15208926E+03  d E =-.532627E-01
       N       E                     dE             d eps       ncg     rms          rms(c)
DAV:   1    -0.152127821296E+03   -0.36208E-01   -0.51102E+01  2970   0.296E+01    0.135E+00
DAV:   2    -0.152218376998E+03   -0.90556E-01   -0.13296E+00  3420   0.441E+00    0.687E-01
DAV:   3    -0.152208363320E+03    0.10014E-01   -0.24252E-02  3490   0.687E-01    0.444E-01
DAV:   4    -0.152203040833E+03    0.53225E-02   -0.30403E-02  3440   0.960E-01    0.172E-01
DAV:   5    -0.152202703838E+03    0.33699E-03   -0.10965E-02  3450   0.388E-01    0.177E-01
DAV:   6    -0.152202077945E+03    0.62589E-03   -0.13230E-03  3470   0.161E-01    0.902E-02
DAV:   7    -0.152201457194E+03    0.62075E-03   -0.83489E-04  3520   0.154E-01    0.405E-02
DAV:   8    -0.152200696803E+03    0.76039E-03   -0.32179E-04  4350   0.229E-01    0.574E-02
DAV:   9    -0.152199878422E+03    0.81838E-03   -0.36755E-04  4870   0.304E-01    0.359E-02
DAV:  10    -0.152198235736E+03    0.16427E-02   -0.12413E-03  4760   0.750E-01    0.331E-02
DAV:  11    -0.152197341375E+03    0.89436E-03   -0.22668E-03  4240   0.734E-01    0.452E-02
DAV:  12    -0.152197249410E+03    0.91966E-04   -0.20972E-03  3500   0.304E-01    0.193E-02
DAV:  13    -0.152197205689E+03    0.43721E-04   -0.40442E-04  3740   0.190E-01    0.174E-02
DAV:  14    -0.152197206771E+03   -0.10827E-05   -0.29134E-04  3290   0.875E-02    0.157E-02
DAV:  15    -0.152197183344E+03    0.23427E-04   -0.14664E-04  3480   0.732E-02    0.247E-02
DAV:  16    -0.152197144393E+03    0.38951E-04   -0.40877E-05  3530   0.118E-01    0.157E-02
DAV:  17    -0.152197133940E+03    0.10453E-04   -0.64513E-05  3320   0.650E-02    0.766E-03
DAV:  18    -0.152197134140E+03   -0.20077E-06   -0.37116E-05  3040   0.433E-02
  17 F= -.15219713E+03 E0= -.15219439E+03  d E =-.158788E+00
       N       E                     dE             d eps       ncg     rms          rms(c)
DAV:   1    -0.151838642869E+03    0.35849E+00   -0.20293E+02  2970   0.586E+01    0.299E+00
DAV:   2    -0.152267509680E+03   -0.42887E+00   -0.63961E+00  3410   0.943E+00    0.157E+00
DAV:   3    -0.152217174866E+03    0.50335E-01   -0.12306E-01  3490   0.156E+00    0.968E-01
DAV:   4    -0.152193035359E+03    0.24140E-01   -0.14923E-01  3470   0.205E+00    0.399E-01
DAV:   5    -0.152191499125E+03    0.15362E-02   -0.42758E-02  3450   0.798E-01    0.350E-01
DAV:   6    -0.152188901834E+03    0.25973E-02   -0.73901E-03  3490   0.366E-01    0.159E-01
DAV:   7    -0.152186541162E+03    0.23607E-02   -0.26923E-03  3570   0.311E-01    0.819E-02
DAV:   8    -0.152183406413E+03    0.31347E-02   -0.15915E-03  4620   0.486E-01    0.910E-02
DAV:   9    -0.152180564971E+03    0.28414E-02   -0.14944E-03  4650   0.515E-01    0.647E-02
DAV:  10    -0.152175232654E+03    0.53323E-02   -0.43170E-03  4590   0.110E+00    0.733E-02
DAV:  11    -0.152171890536E+03    0.33421E-02   -0.69487E-03  4030   0.102E+00    0.976E-02
DAV:  12    -0.152170619102E+03    0.12714E-02   -0.62613E-03  3710   0.733E-01    0.783E-02
DAV:  13    -0.152170554013E+03    0.65089E-04   -0.43461E-03  3500   0.391E-01    0.363E-02
DAV:  14    -0.152170628875E+03   -0.74862E-04   -0.10986E-03  3330   0.114E-01    0.358E-02
DAV:  15    -0.152170595733E+03    0.33142E-04   -0.43198E-05  3280   0.246E-02    0.298E-02
DAV:  16    -0.152170500609E+03    0.95124E-04   -0.59364E-04  3600   0.134E-01    0.689E-02
DAV:  17    -0.152170363709E+03    0.13690E-03   -0.43406E-04  4730   0.243E-01    0.743E-02
DAV:  18    -0.152170321377E+03    0.42332E-04   -0.78628E-04  3380   0.104E-01    0.358E-02
DAV:  19    -0.152170309575E+03    0.11802E-04   -0.40215E-05  3300   0.302E-02    0.265E-02
DAV:  20    -0.152170298643E+03    0.10932E-04   -0.67472E-05  3420   0.463E-02    0.986E-03
DAV:  21    -0.152170299911E+03   -0.12678E-05   -0.39795E-05  3140   0.349E-02
  18 F= -.15217030E+03 E0= -.15216719E+03  d E =-.131954E+00
       N       E                     dE             d eps       ncg     rms          rms(c)
DAV:   1    -0.152130406896E+03    0.39892E-01   -0.68703E+01  3020   0.336E+01    0.137E+00
DAV:   2    -0.152250375836E+03   -0.11997E+00   -0.15963E+00  3380   0.472E+00    0.817E-01
DAV:   3    -0.152237016824E+03    0.13359E-01   -0.34380E-02  3500   0.743E-01    0.489E-01
DAV:   4    -0.152230438396E+03    0.65784E-02   -0.21085E-02  3580   0.753E-01    0.179E-01
DAV:   5    -0.152229458034E+03    0.98036E-03   -0.82425E-03  3500   0.326E-01    0.116E-01
DAV:   6    -0.152228463300E+03    0.99473E-03   -0.20729E-03  3560   0.207E-01    0.627E-02
DAV:   7    -0.152228067666E+03    0.39563E-03   -0.31194E-04  3530   0.101E-01    0.521E-02
DAV:   8    -0.152227230003E+03    0.83766E-03   -0.64099E-04  4590   0.212E-01    0.283E-02
DAV:   9    -0.152226276755E+03    0.95325E-03   -0.41474E-04  4340   0.234E-01    0.342E-02
DAV:  10    -0.152225019423E+03    0.12573E-02   -0.98813E-04  4430   0.393E-01    0.410E-02
DAV:  11    -0.152223863648E+03    0.11558E-02   -0.22023E-03  4160   0.638E-01    0.462E-02
DAV:  12    -0.152223698899E+03    0.16475E-03   -0.23598E-03  3920   0.386E-01    0.205E-02
DAV:  13    -0.152223765641E+03   -0.66741E-04   -0.12826E-03  3410   0.132E-01    0.383E-02
DAV:  14    -0.152223698884E+03    0.66757E-04   -0.11262E-04  3570   0.803E-02    0.181E-02
DAV:  15    -0.152223636624E+03    0.62260E-04   -0.10450E-04  4240   0.138E-01    0.854E-03
DAV:  16    -0.152223609450E+03    0.27174E-04   -0.77744E-05  3940   0.111E-01    0.119E-02
DAV:  17    -0.152223610837E+03   -0.13871E-05   -0.98063E-05  3280   0.485E-02
  19 F= -.15222361E+03 E0= -.15222065E+03  d E =-.185265E+00
       N       E                     dE             d eps       ncg     rms          rms(c)
DAV:   1    -0.152297256361E+03   -0.73647E-01   -0.64740E+00  3020   0.109E+01    0.975E-01
DAV:   2    -0.152292629809E+03    0.46266E-02   -0.22979E-01  3500   0.182E+00    0.261E-01
DAV:   3    -0.152291432407E+03    0.11974E-02   -0.12871E-02  3450   0.372E-01    0.131E-01
DAV:   4    -0.152290944351E+03    0.48806E-03   -0.24537E-03  3420   0.190E-01    0.710E-02
DAV:   5    -0.152290721799E+03    0.22255E-03   -0.53041E-04  3750   0.134E-01    0.379E-02
DAV:   6    -0.152290591800E+03    0.13000E-03   -0.28242E-04  3990   0.154E-01    0.221E-02
DAV:   7    -0.152290579764E+03    0.12036E-04   -0.21041E-04  3390   0.649E-02    0.242E-02
DAV:   8    -0.152290568756E+03    0.11009E-04   -0.17284E-05  2380   0.184E-02    0.202E-02
DAV:   9    -0.152290509428E+03    0.59327E-04   -0.40645E-05  3270   0.561E-02    0.148E-02
DAV:  10    -0.152290446047E+03    0.63381E-04   -0.58178E-05  3480   0.879E-02    0.195E-02
DAV:  11    -0.152290418104E+03    0.27943E-04   -0.68922E-05  3410   0.630E-02    0.135E-02
DAV:  12    -0.152290394519E+03    0.23585E-04   -0.20167E-04  4060   0.121E-01    0.309E-02
DAV:  13    -0.152290350690E+03    0.43829E-04   -0.25104E-05  3010   0.125E-01    0.351E-02
DAV:  14    -0.152290286352E+03    0.64338E-04   -0.10576E-04  4490   0.188E-01    0.278E-02
DAV:  15    -0.152290265422E+03    0.20930E-04   -0.22554E-04  3470   0.744E-02    0.109E-02
DAV:  16    -0.152290265612E+03   -0.19035E-06   -0.43798E-05  3000   0.284E-02
  20 F= -.15229027E+03 E0= -.15228778E+03  d E =-.666548E-01
       N       E                     dE             d eps       ncg     rms          rms(c)
DAV:   1    -0.152354150701E+03   -0.63885E-01   -0.19089E+01  3040   0.187E+01    0.165E+00
DAV:   2    -0.152341768164E+03    0.12383E-01   -0.66607E-01  3500   0.311E+00    0.455E-01
DAV:   3    -0.152338197866E+03    0.35703E-02   -0.41581E-02  3430   0.652E-01    0.225E-01
DAV:   4    -0.152336795695E+03    0.14022E-02   -0.81983E-03  3430   0.317E-01    0.124E-01
DAV:   5    -0.152336126036E+03    0.66966E-03   -0.17263E-03  3670   0.236E-01    0.642E-02
DAV:   6    -0.152335783529E+03    0.34251E-03   -0.79711E-04  4160   0.257E-01    0.349E-02
DAV:   7    -0.152335723961E+03    0.59568E-04   -0.53111E-04  3470   0.119E-01    0.367E-02
DAV:   8    -0.152335680470E+03    0.43491E-04   -0.68839E-05  3240   0.427E-02    0.301E-02
DAV:   9    -0.152335536867E+03    0.14360E-03   -0.70752E-05  3380   0.882E-02    0.211E-02
DAV:  10    -0.152335341311E+03    0.19556E-03   -0.14749E-04  3800   0.168E-01    0.277E-02
DAV:  11    -0.152335258926E+03    0.82385E-04   -0.20745E-04  4020   0.124E-01    0.164E-02
DAV:  12    -0.152335182424E+03    0.76503E-04   -0.55046E-04  4530   0.261E-01    0.602E-02
DAV:  13    -0.152335023648E+03    0.15878E-03   -0.16504E-04  4670   0.258E-01    0.608E-02
DAV:  14    -0.152334837021E+03    0.18663E-03   -0.39446E-04  3550   0.244E-01    0.164E-02
DAV:  15    -0.152334832427E+03    0.45937E-05   -0.28575E-04  3440   0.100E-01    0.106E-02
DAV:  16    -0.152334829343E+03    0.30835E-05   -0.10513E-04  3290   0.453E-02    0.146E-02
DAV:  17    -0.152334812811E+03    0.16533E-04   -0.10252E-04  3510   0.734E-02    0.156E-02
DAV:  18    -0.152334802802E+03    0.10008E-04   -0.37029E-05  3040   0.465E-02    0.816E-03
DAV:  19    -0.152334802730E+03    0.71916E-07   -0.26986E-05  2630   0.196E-02
  21 F= -.15233480E+03 E0= -.15233255E+03  d E =-.111192E+00
       N       E                     dE             d eps       ncg     rms          rms(c)
DAV:   1    -0.152376689797E+03   -0.41887E-01   -0.91521E+00  3000   0.129E+01    0.684E-01
DAV:   2    -0.152389634776E+03   -0.12945E-01   -0.24524E-01  3430   0.192E+00    0.288E-01
DAV:   3    -0.152387913729E+03    0.17210E-02   -0.49875E-03  3530   0.315E-01    0.178E-01
DAV:   4    -0.152387094632E+03    0.81910E-03   -0.41988E-03  3500   0.342E-01    0.686E-02
DAV:   5    -0.152387003656E+03    0.90975E-04   -0.17058E-03  3460   0.176E-01    0.599E-02
DAV:   6    -0.152386960097E+03    0.43560E-04   -0.23321E-04  3490   0.620E-02    0.393E-02
DAV:   7    -0.152386911432E+03    0.48664E-04   -0.75800E-05  3490   0.379E-02    0.212E-02
DAV:   8    -0.152386858883E+03    0.52550E-04   -0.89128E-05  3620   0.690E-02    0.143E-02
DAV:   9    -0.152386841140E+03    0.17742E-04   -0.64592E-05  3350   0.589E-02    0.152E-02
DAV:  10    -0.152386828652E+03    0.12488E-04   -0.54865E-05  3180   0.570E-02    0.122E-02
DAV:  11    -0.152386823445E+03    0.52077E-05   -0.24123E-05  2570   0.261E-02
  22 F= -.15238682E+03 E0= -.15238485E+03  d E =-.520207E-01
       N       E                     dE             d eps       ncg     rms          rms(c)
DAV:   1    -0.152390158255E+03   -0.33296E-02   -0.27548E+01  3010   0.225E+01    0.123E+00
DAV:   2    -0.152428615717E+03   -0.38457E-01   -0.78463E-01  3400   0.340E+00    0.507E-01
DAV:   3    -0.152423057926E+03    0.55578E-02   -0.18809E-02  3480   0.577E-01    0.318E-01
DAV:   4    -0.152420511325E+03    0.25466E-02   -0.14526E-02  3460   0.611E-01    0.127E-01
DAV:   5    -0.152420069440E+03    0.44189E-03   -0.62428E-03  3440   0.342E-01    0.110E-01
DAV:   6    -0.152419929585E+03    0.13986E-03   -0.86732E-04  3510   0.123E-01    0.758E-02
DAV:   7    -0.152419776914E+03    0.15267E-03   -0.26960E-04  3530   0.641E-02    0.408E-02
DAV:   8    -0.152419593485E+03    0.18343E-03   -0.30245E-04  3810   0.132E-01    0.271E-02
DAV:   9    -0.152419517426E+03    0.76059E-04   -0.24596E-04  4180   0.131E-01    0.262E-02
DAV:  10    -0.152419486835E+03    0.30591E-04   -0.19679E-04  3590   0.914E-02    0.238E-02
DAV:  11    -0.152419463689E+03    0.23146E-04   -0.63545E-05  3350   0.436E-02    0.123E-02
DAV:  12    -0.152419433220E+03    0.30470E-04   -0.39186E-05  3270   0.676E-02    0.930E-03
DAV:  13    -0.152419422467E+03    0.10752E-04   -0.24980E-05  2830   0.542E-02    0.106E-02
DAV:  14    -0.152419419187E+03    0.32807E-05   -0.33555E-05  2940   0.444E-02
  23 F= -.15241942E+03 E0= -.15241739E+03  d E =-.846165E-01
       N       E                     dE             d eps       ncg     rms          rms(c)
DAV:   1    -0.152438906398E+03   -0.19484E-01   -0.96923E+00  2940   0.135E+01    0.994E-01
DAV:   2    -0.152443711579E+03   -0.48052E-02   -0.29244E-01  3410   0.217E+00    0.318E-01
DAV:   3    -0.152441408103E+03    0.23035E-02   -0.10629E-02  3470   0.473E-01    0.193E-01
DAV:   4    -0.152439884733E+03    0.15234E-02   -0.43770E-03  3570   0.390E-01    0.839E-02
DAV:   5    -0.152439302474E+03    0.58226E-03   -0.14994E-03  3590   0.218E-01    0.557E-02
DAV:   6    -0.152438926087E+03    0.37639E-03   -0.77801E-04  3550   0.160E-01    0.350E-02
DAV:   7    -0.152438590769E+03    0.33532E-03   -0.31034E-04  4380   0.155E-01    0.404E-02
DAV:   8    -0.152438319517E+03    0.27125E-03   -0.31065E-04  4450   0.157E-01    0.193E-02
DAV:   9    -0.152437953919E+03    0.36560E-03   -0.42253E-04  4790   0.266E-01    0.167E-02
DAV:  10    -0.152437856804E+03    0.97115E-04   -0.41135E-04  3600   0.153E-01    0.167E-02
DAV:  11    -0.152437756767E+03    0.10004E-03   -0.15305E-04  3880   0.144E-01    0.168E-02
DAV:  12    -0.152437685335E+03    0.71431E-04   -0.73598E-05  3670   0.122E-01    0.117E-02
DAV:  13    -0.152437615367E+03    0.69968E-04   -0.46710E-05  3390   0.134E-01    0.814E-03
DAV:  14    -0.152437495440E+03    0.11993E-03   -0.12124E-04  4160   0.283E-01    0.837E-03
DAV:  15    -0.152437472952E+03    0.22488E-04   -0.19341E-04  3600   0.174E-01    0.862E-03
DAV:  16    -0.152437491741E+03   -0.18789E-04   -0.22690E-04  3280   0.582E-02    0.103E-02
DAV:  17    -0.152437489913E+03    0.18279E-05   -0.50758E-06  2100   0.262E-02
  24 F= -.15243749E+03 E0= -.15243519E+03  d E =-.180707E-01
       N       E                     dE             d eps       ncg     rms          rms(c)
DAV:   1    -0.152437837961E+03   -0.34622E-03   -0.19017E-01  3080   0.188E+00    0.135E-01
DAV:   2    -0.152437908782E+03   -0.70821E-04   -0.52602E-03  3450   0.291E-01    0.444E-02
DAV:   3    -0.152437858393E+03    0.50390E-04   -0.21472E-04  3500   0.677E-02    0.249E-02
DAV:   4    -0.152437830475E+03    0.27918E-04   -0.70615E-05  3520   0.479E-02    0.115E-02
DAV:   5    -0.152437817891E+03    0.12584E-04   -0.22664E-05  2700   0.308E-02    0.603E-03
DAV:   6    -0.152437809838E+03    0.80532E-05   -0.13860E-05  2410   0.262E-02
  25 F= -.15243781E+03 E0= -.15243549E+03  d E =-.183907E-01
       N       E                     dE             d eps       ncg     rms          rms(c)
DAV:   1    -0.152447513372E+03   -0.96955E-02   -0.16028E+00  2940   0.551E+00    0.442E-01
DAV:   2    -0.152447758227E+03   -0.24485E-03   -0.43317E-02  3500   0.818E-01    0.195E-01
DAV:   3    -0.152446981473E+03    0.77675E-03   -0.13337E-03  3510   0.202E-01    0.967E-02
DAV:   4    -0.152446741026E+03    0.24045E-03   -0.10062E-03  3580   0.160E-01    0.323E-02
DAV:   5    -0.152446722179E+03    0.18847E-04   -0.27794E-04  3510   0.675E-02    0.238E-02
DAV:   6    -0.152446711457E+03    0.10722E-04   -0.94619E-05  3370   0.400E-02    0.107E-02
DAV:   7    -0.152446707511E+03    0.39456E-05   -0.56261E-06  2100   0.197E-02
  26 F= -.15244671E+03 E0= -.15244445E+03  d E =-.889767E-02
       N       E                     dE             d eps       ncg     rms          rms(c)
DAV:   1    -0.152450596674E+03   -0.38852E-02   -0.22511E+00  2960   0.653E+00    0.521E-01
DAV:   2    -0.152450974114E+03   -0.37744E-03   -0.60548E-02  3480   0.970E-01    0.230E-01
DAV:   3    -0.152449892785E+03    0.10813E-02   -0.18546E-03  3510   0.239E-01    0.114E-01
DAV:   4    -0.152449547945E+03    0.34484E-03   -0.13259E-03  3550   0.194E-01    0.372E-02
DAV:   5    -0.152449527626E+03    0.20319E-04   -0.39450E-04  3510   0.848E-02    0.294E-02
DAV:   6    -0.152449510608E+03    0.17018E-04   -0.99210E-05  3370   0.416E-02    0.121E-02
DAV:   7    -0.152449503188E+03    0.74205E-05   -0.49108E-06  2210   0.230E-02
  27 F= -.15244950E+03 E0= -.15244726E+03  d E =-.116933E-01
       N       E                     dE             d eps       ncg     rms          rms(c)
DAV:   1    -0.152454388029E+03   -0.48774E-02   -0.68339E-01  2960   0.359E+00    0.154E-01
DAV:   2    -0.152455700597E+03   -0.13126E-02   -0.15992E-02  3400   0.495E-01    0.808E-02
DAV:   3    -0.152455578722E+03    0.12187E-03   -0.22381E-04  3560   0.634E-02    0.494E-02
DAV:   4    -0.152455519314E+03    0.59408E-04   -0.23608E-04  3490   0.721E-02    0.145E-02
DAV:   5    -0.152455516094E+03    0.32203E-05   -0.64727E-05  3340   0.317E-02    0.130E-02
DAV:   6    -0.152455512788E+03    0.33057E-05   -0.17685E-05  2430   0.224E-02
  28 F= -.15245551E+03 E0= -.15245325E+03  d E =-.600960E-02
       N       E                     dE             d eps       ncg     rms          rms(c)
DAV:   1    -0.152458929043E+03   -0.34129E-02   -0.61459E+00  2940   0.108E+01    0.465E-01
DAV:   2    -0.152470877635E+03   -0.11949E-01   -0.14634E-01  3420   0.150E+00    0.244E-01
DAV:   3    -0.152469773360E+03    0.11043E-02   -0.20715E-03  3560   0.197E-01    0.150E-01
DAV:   4    -0.152469256689E+03    0.51667E-03   -0.22939E-03  3490   0.227E-01    0.458E-02
DAV:   5    -0.152469238412E+03    0.18277E-04   -0.61919E-04  3430   0.101E-01    0.400E-02
DAV:   6    -0.152469220148E+03    0.18264E-04   -0.20046E-04  3490   0.668E-02    0.188E-02
DAV:   7    -0.152469215525E+03    0.46232E-05   -0.22306E-05  2520   0.231E-02
  29 F= -.15246922E+03 E0= -.15246639E+03  d E =-.197123E-01
       N       E                     dE             d eps       ncg     rms          rms(c)
DAV:   1    -0.152435900381E+03    0.33320E-01   -0.24570E+01  2940   0.215E+01    0.943E-01
DAV:   2    -0.152484482530E+03   -0.48582E-01   -0.60056E-01  3420   0.302E+00    0.489E-01
DAV:   3    -0.152480115013E+03    0.43675E-02   -0.92726E-03  3560   0.407E-01    0.301E-01
DAV:   4    -0.152478121044E+03    0.19940E-02   -0.87630E-03  3480   0.446E-01    0.896E-02
DAV:   5    -0.152478076318E+03    0.44726E-04   -0.24091E-03  3420   0.199E-01    0.756E-02
DAV:   6    -0.152478026686E+03    0.49632E-04   -0.67639E-04  3580   0.119E-01    0.370E-02
DAV:   7    -0.152478015478E+03    0.11208E-04   -0.64731E-05  3230   0.388E-02    0.249E-02
DAV:   8    -0.152478001177E+03    0.14301E-04   -0.39056E-05  3170   0.458E-02    0.560E-03
DAV:   9    -0.152477999550E+03    0.16270E-05   -0.23840E-05  2510   0.265E-02
  30 F= -.15247800E+03 E0= -.15247408E+03  d E =-.284964E-01
       N       E                     dE             d eps       ncg     rms          rms(c)
DAV:   1    -0.152483209830E+03   -0.52087E-02   -0.76577E-01  2960   0.380E+00    0.157E-01
DAV:   2    -0.152484696248E+03   -0.14864E-02   -0.18997E-02  3350   0.535E-01    0.652E-02
DAV:   3    -0.152484610101E+03    0.86148E-04   -0.34137E-04  3510   0.725E-02    0.394E-02
DAV:   4    -0.152484576619E+03    0.33482E-04   -0.11305E-04  3440   0.491E-02    0.163E-02
DAV:   5    -0.152484573847E+03    0.27720E-05   -0.43154E-05  3240   0.285E-02    0.802E-03
DAV:   6    -0.152484574253E+03   -0.40581E-06   -0.12130E-05  2050   0.152E-02
  31 F= -.15248457E+03 E0= -.15248057E+03  d E =-.657470E-02
       N       E                     dE             d eps       ncg     rms          rms(c)
DAV:   1    -0.152489824584E+03   -0.52507E-02   -0.68912E+00  2940   0.114E+01    0.485E-01
DAV:   2    -0.152503296667E+03   -0.13472E-01   -0.17494E-01  3340   0.162E+00    0.192E-01
DAV:   3    -0.152502535821E+03    0.76085E-03   -0.30587E-03  3540   0.217E-01    0.119E-01
DAV:   4    -0.152502213481E+03    0.32234E-03   -0.11285E-03  3460   0.154E-01    0.480E-02
DAV:   5    -0.152502178769E+03    0.34712E-04   -0.42198E-04  3460   0.884E-02    0.248E-02
DAV:   6    -0.152502177779E+03    0.98992E-06   -0.12431E-04  3470   0.470E-02    0.156E-02
DAV:   7    -0.152502173593E+03    0.41865E-05   -0.14510E-05  2420   0.180E-02
  32 F= -.15250217E+03 E0= -.15249798E+03  d E =-.241740E-01
       N       E                     dE             d eps       ncg     rms          rms(c)
DAV:   1    -0.152478174915E+03    0.24003E-01   -0.27530E+01  2940   0.228E+01    0.101E+00
DAV:   2    -0.152532569309E+03   -0.54394E-01   -0.72685E-01  3340   0.329E+00    0.386E-01
DAV:   3    -0.152529436221E+03    0.31331E-02   -0.13123E-02  3540   0.445E-01    0.246E-01
DAV:   4    -0.152528067831E+03    0.13684E-02   -0.52555E-03  3440   0.324E-01    0.994E-02
DAV:   5    -0.152527890179E+03    0.17765E-03   -0.19116E-03  3480   0.185E-01    0.522E-02
DAV:   6    -0.152527876180E+03    0.13999E-04   -0.58344E-04  3470   0.101E-01    0.319E-02
DAV:   7    -0.152527856489E+03    0.19691E-04   -0.69789E-05  3310   0.383E-02    0.236E-02
DAV:   8    -0.152527821883E+03    0.34606E-04   -0.33703E-05  3000   0.529E-02    0.797E-03
DAV:   9    -0.152527809031E+03    0.12852E-04   -0.33890E-05  2880   0.316E-02    0.587E-03
DAV:  10    -0.152527788723E+03    0.20308E-04   -0.64130E-06  2240   0.300E-02    0.693E-03
DAV:  11    -0.152527749791E+03    0.38932E-04   -0.25633E-05  2870   0.752E-02    0.141E-02
DAV:  12    -0.152527707516E+03    0.42275E-04   -0.49528E-05  3580   0.116E-01    0.784E-03
DAV:  13    -0.152527690655E+03    0.16861E-04   -0.69587E-05  3780   0.994E-02    0.542E-03
DAV:  14    -0.152527685376E+03    0.52787E-05   -0.37802E-05  3050   0.582E-02
  33 F= -.15252769E+03 E0= -.15252310E+03  d E =-.496858E-01
       N       E                     dE             d eps       ncg     rms          rms(c)
DAV:   1    -0.152334304950E+03    0.19339E+00   -0.10971E+02  2950   0.453E+01    0.218E+00
DAV:   2    -0.152565545403E+03   -0.23124E+00   -0.32242E+00  3340   0.684E+00    0.843E-01
DAV:   3    -0.152550584651E+03    0.14961E-01   -0.60813E-02  3560   0.969E-01    0.530E-01
DAV:   4    -0.152544596794E+03    0.59879E-02   -0.29406E-02  3430   0.716E-01    0.220E-01
DAV:   5    -0.152543707599E+03    0.88919E-03   -0.94534E-03  3470   0.383E-01    0.120E-01
DAV:   6    -0.152543653266E+03    0.54333E-04   -0.30109E-03  3490   0.227E-01    0.689E-02
DAV:   7    -0.152543605635E+03    0.47631E-04   -0.35949E-04  3470   0.751E-02    0.496E-02
DAV:   8    -0.152543521810E+03    0.83825E-04   -0.15499E-04  4070   0.858E-02    0.161E-02
DAV:   9    -0.152543484363E+03    0.37447E-04   -0.93544E-05  3470   0.495E-02    0.108E-02
DAV:  10    -0.152543453097E+03    0.31266E-04   -0.13987E-05  2320   0.317E-02    0.939E-03
DAV:  11    -0.152543392596E+03    0.60501E-04   -0.31378E-05  2950   0.677E-02    0.143E-02
DAV:  12    -0.152543275104E+03    0.11749E-03   -0.12744E-04  4290   0.187E-01    0.907E-03
DAV:  13    -0.152543245259E+03    0.29845E-04   -0.12649E-04  3660   0.108E-01    0.889E-03
DAV:  14    -0.152543223346E+03    0.21912E-04   -0.41733E-05  3180   0.887E-02    0.617E-03
DAV:  15    -0.152543214103E+03    0.92432E-05   -0.36184E-05  3090   0.708E-02
  34 F= -.15254321E+03 E0= -.15253948E+03  d E =-.652146E-01
       N       E                     dE             d eps       ncg     rms          rms(c)
DAV:   1    -0.152545576968E+03   -0.23536E-02   -0.58183E+00  2950   0.104E+01    0.335E-01
DAV:   2    -0.152557824981E+03   -0.12248E-01   -0.13815E-01  3370   0.143E+00    0.171E-01
DAV:   3    -0.152557239490E+03    0.58549E-03   -0.19573E-03  3550   0.172E-01    0.115E-01
DAV:   4    -0.152556940314E+03    0.29918E-03   -0.99979E-04  3490   0.140E-01    0.454E-02
DAV:   5    -0.152556913628E+03    0.26686E-04   -0.50898E-04  3470   0.885E-02    0.243E-02
DAV:   6    -0.152556915653E+03   -0.20249E-05   -0.10238E-04  3420   0.397E-02    0.157E-02
DAV:   7    -0.152556914772E+03    0.88084E-06   -0.12698E-05  2140   0.127E-02
  35 F= -.15255691E+03 E0= -.15255355E+03  d E =-.137007E-01
       N       E                     dE             d eps       ncg     rms          rms(c)
DAV:   1    -0.152475366268E+03    0.81549E-01   -0.52258E+01  2950   0.311E+01    0.106E+00
DAV:   2    -0.152591159101E+03   -0.11579E+00   -0.13084E+00  3370   0.440E+00    0.546E-01
DAV:   3    -0.152585471377E+03    0.56877E-02   -0.17703E-02  3560   0.543E-01    0.362E-01
DAV:   4    -0.152582486263E+03    0.29851E-02   -0.11525E-02  3470   0.482E-01    0.135E-01
DAV:   5    -0.152582327253E+03    0.15901E-03   -0.38357E-03  3470   0.254E-01    0.770E-02
DAV:   6    -0.152582351501E+03   -0.24248E-04   -0.90565E-04  3480   0.124E-01    0.456E-02
DAV:   7    -0.152582344888E+03    0.66130E-05   -0.98617E-05  3460   0.392E-02
  36 F= -.15258234E+03 E0= -.15257958E+03  d E =-.391308E-01
       N       E                     dE             d eps       ncg     rms          rms(c)
DAV:   1    -0.152066921032E+03    0.51543E+00   -0.20740E+02  2950   0.619E+01    0.237E+00
DAV:   2    -0.152603840959E+03   -0.53692E+00   -0.61591E+00  3390   0.945E+00    0.136E+00
DAV:   3    -0.152570944006E+03    0.32897E-01   -0.97124E-02  3540   0.136E+00    0.849E-01
DAV:   4    -0.152557105398E+03    0.13839E-01   -0.68757E-02  3420   0.112E+00    0.333E-01
DAV:   5    -0.152555467177E+03    0.16382E-02   -0.11126E-02  3510   0.526E-01    0.162E-01
DAV:   6    -0.152555664767E+03   -0.19759E-03   -0.48285E-03  3490   0.307E-01    0.897E-02
DAV:   7    -0.152555644657E+03    0.20110E-04   -0.62724E-04  3460   0.111E-01    0.586E-02
DAV:   8    -0.152555639152E+03    0.55053E-05   -0.37848E-04  3470   0.829E-02    0.322E-02
DAV:   9    -0.152555620070E+03    0.19082E-04   -0.39286E-05  3160   0.489E-02    0.190E-02
DAV:  10    -0.152555613530E+03    0.65397E-05   -0.68905E-05  3320   0.420E-02
  37 F= -.15255561E+03 E0= -.15255239E+03  d E =-.123994E-01
       N       E                     dE             d eps       ncg     rms          rms(c)
DAV:   1    -0.152318129009E+03    0.23749E+00   -0.11763E+02  2940   0.468E+01    0.158E+00
DAV:   2    -0.152612583792E+03   -0.29445E+00   -0.32525E+00  3360   0.683E+00    0.103E+00
DAV:   3    -0.152593728319E+03    0.18855E-01   -0.43632E-02  3530   0.957E-01    0.598E-01
DAV:   4    -0.152586347517E+03    0.73808E-02   -0.18648E-02  3520   0.614E-01    0.245E-01
DAV:   5    -0.152585524723E+03    0.82279E-03   -0.75683E-03  3500   0.381E-01    0.843E-02
DAV:   6    -0.152585648374E+03   -0.12365E-03   -0.18613E-03  3490   0.168E-01    0.704E-02
DAV:   7    -0.152585628457E+03    0.19917E-04   -0.23187E-04  3400   0.524E-02    0.502E-02
DAV:   8    -0.152585601005E+03    0.27452E-04   -0.72991E-05  3450   0.416E-02    0.203E-02
DAV:   9    -0.152585594549E+03    0.64560E-05   -0.26945E-05  2800   0.254E-02
  38 F= -.15258559E+03 E0= -.15258288E+03  d E =-.423804E-01
       N       E                     dE             d eps       ncg     rms          rms(c)
DAV:   1    -0.152597468546E+03   -0.11868E-01   -0.54222E-01  2980   0.315E+00    0.301E-01
DAV:   2    -0.152596921644E+03    0.54690E-03   -0.18202E-02  3530   0.527E-01    0.967E-02
DAV:   3    -0.152596768934E+03    0.15271E-03   -0.82960E-04  3520   0.130E-01    0.448E-02
DAV:   4    -0.152596728727E+03    0.40207E-04   -0.28439E-04  3550   0.721E-02    0.221E-02
DAV:   5    -0.152596713421E+03    0.15306E-04   -0.62061E-05  3370   0.319E-02    0.103E-02
DAV:   6    -0.152596710556E+03    0.28646E-05   -0.16697E-05  2140   0.190E-02
  39 F= -.15259671E+03 E0= -.15259400E+03  d E =-.111160E-01
       N       E                     dE             d eps       ncg     rms          rms(c)
DAV:   1    -0.152618243705E+03   -0.21530E-01   -0.48708E+00  2960   0.942E+00    0.891E-01
DAV:   2    -0.152613568852E+03    0.46749E-02   -0.16000E-01  3540   0.157E+00    0.293E-01
DAV:   3    -0.152612130122E+03    0.14387E-02   -0.78614E-03  3530   0.402E-01    0.133E-01
DAV:   4    -0.152611785757E+03    0.34437E-03   -0.26582E-03  3570   0.220E-01    0.673E-02
DAV:   5    -0.152611658036E+03    0.12772E-03   -0.58906E-04  3510   0.974E-02    0.316E-02
DAV:   6    -0.152611635493E+03    0.22544E-04   -0.15953E-04  3550   0.578E-02    0.144E-02
DAV:   7    -0.152611629897E+03    0.55959E-05   -0.23760E-05  2550   0.231E-02
  40 F= -.15261163E+03 E0= -.15260890E+03  d E =-.260353E-01
       N       E                     dE             d eps       ncg     rms          rms(c)
DAV:   1    -0.152620011276E+03   -0.83758E-02   -0.87880E-01  2970   0.392E+00    0.322E-01
DAV:   2    -0.152619998288E+03    0.12988E-04   -0.27612E-02  3560   0.658E-01    0.996E-02
DAV:   3    -0.152619797107E+03    0.20118E-03   -0.93018E-04  3460   0.140E-01    0.582E-02
DAV:   4    -0.152619748331E+03    0.48775E-04   -0.80824E-04  3530   0.125E-01    0.294E-02
DAV:   5    -0.152619730786E+03    0.17545E-04   -0.12266E-04  3510   0.483E-02    0.209E-02
DAV:   6    -0.152619724008E+03    0.67781E-05   -0.76391E-05  3210   0.406E-02
  41 F= -.15261972E+03 E0= -.15261700E+03  d E =-.809411E-02
       N       E                     dE             d eps       ncg     rms          rms(c)
DAV:   1    -0.152624672223E+03   -0.49414E-02   -0.18786E+00  2940   0.575E+00    0.472E-01
DAV:   2    -0.152624740063E+03   -0.67840E-04   -0.60373E-02  3560   0.972E-01    0.149E-01
DAV:   3    -0.152624287365E+03    0.45270E-03   -0.20514E-03  3470   0.208E-01    0.884E-02
DAV:   4    -0.152624165884E+03    0.12148E-03   -0.18220E-03  3520   0.187E-01    0.439E-02
DAV:   5    -0.152624121557E+03    0.44327E-04   -0.28262E-04  3570   0.746E-02    0.316E-02
DAV:   6    -0.152624104261E+03    0.17296E-04   -0.17476E-04  3540   0.624E-02    0.136E-02
DAV:   7    -0.152624095713E+03    0.85479E-05   -0.18615E-05  2480   0.303E-02
  42 F= -.15262410E+03 E0= -.15262138E+03  d E =-.124658E-01
       N       E                     dE             d eps       ncg     rms          rms(c)
DAV:   1    -0.152626295104E+03   -0.21908E-02   -0.78533E-01  2980   0.372E+00    0.156E-01
DAV:   2    -0.152627549013E+03   -0.12539E-02   -0.17974E-02  3490   0.520E-01    0.896E-02
DAV:   3    -0.152627360918E+03    0.18809E-03   -0.32355E-04  3550   0.983E-02    0.567E-02
DAV:   4    -0.152627255461E+03    0.10546E-03   -0.39506E-04  3500   0.116E-01    0.187E-02
DAV:   5    -0.152627253283E+03    0.21777E-05   -0.17433E-04  3490   0.550E-02    0.174E-02
DAV:   6    -0.152627249458E+03    0.38255E-05   -0.10941E-05  2100   0.153E-02
  43 F= -.15262725E+03 E0= -.15262452E+03  d E =-.315374E-02
       N       E                     dE             d eps       ncg     rms          rms(c)
DAV:   1    -0.152627257674E+03   -0.43913E-05   -0.88551E-01  2980   0.395E+00    0.167E-01
DAV:   2    -0.152628661773E+03   -0.14041E-02   -0.20489E-02  3490   0.555E-01    0.958E-02
DAV:   3    -0.152628442952E+03    0.21882E-03   -0.37671E-04  3550   0.107E-01    0.611E-02
DAV:   4    -0.152628316478E+03    0.12647E-03   -0.47948E-04  3530   0.132E-01    0.206E-02
DAV:   5    -0.152628313470E+03    0.30084E-05   -0.22677E-04  3490   0.626E-02    0.203E-02
DAV:   6    -0.152628310734E+03    0.27358E-05   -0.10837E-05  2150   0.141E-02
  44 F= -.15262831E+03 E0= -.15262554E+03  d E =-.421502E-02
       N       E                     dE             d eps       ncg     rms          rms(c)
DAV:   1    -0.152629433058E+03   -0.11196E-02   -0.28282E-01  3000   0.224E+00    0.108E-01
DAV:   2    -0.152629893905E+03   -0.46085E-03   -0.75347E-03  3440   0.327E-01    0.489E-02
DAV:   3    -0.152629841306E+03    0.52599E-04   -0.17162E-04  3560   0.598E-02    0.309E-02
DAV:   4    -0.152629808975E+03    0.32331E-04   -0.78888E-05  3450   0.510E-02    0.123E-02
DAV:   5    -0.152629800706E+03    0.82687E-05   -0.43903E-05  3080   0.370E-02    0.738E-03
DAV:   6    -0.152629797662E+03    0.30437E-05   -0.16458E-05  2180   0.240E-02
  45 F= -.15262980E+03 E0= -.15262698E+03  d E =-.148693E-02
       N       E                     dE             d eps       ncg     rms          rms(c)
DAV:   1    -0.152629763624E+03    0.37082E-04   -0.63308E-01  2970   0.337E+00    0.158E-01
DAV:   2    -0.152630770467E+03   -0.10068E-02   -0.16651E-02  3450   0.492E-01    0.738E-02
DAV:   3    -0.152630639991E+03    0.13048E-03   -0.43178E-04  3560   0.103E-01    0.467E-02
DAV:   4    -0.152630557519E+03    0.82472E-04   -0.15503E-04  3500   0.796E-02    0.199E-02
DAV:   5    -0.152630527138E+03    0.30381E-04   -0.94774E-05  3520   0.698E-02    0.955E-03
DAV:   6    -0.152630518420E+03    0.87180E-05   -0.55547E-05  3420   0.522E-02
  46 F= -.15263052E+03 E0= -.15262761E+03  d E =-.220769E-02
       N       E                     dE             d eps       ncg     rms          rms(c)
DAV:   1    -0.152631274757E+03   -0.74762E-03   -0.26609E-01  3000   0.220E+00    0.110E-01
DAV:   2    -0.152631661485E+03   -0.38673E-03   -0.67193E-03  3360   0.318E-01    0.436E-02
DAV:   3    -0.152631614939E+03    0.46547E-04   -0.16127E-04  3500   0.593E-02    0.254E-02
DAV:   4    -0.152631589868E+03    0.25070E-04   -0.58923E-05  3460   0.497E-02    0.112E-02
DAV:   5    -0.152631579958E+03    0.99108E-05   -0.33854E-05  2640   0.397E-02    0.641E-03
DAV:   6    -0.152631573835E+03    0.61230E-05   -0.11792E-05  2180   0.333E-02
  47 F= -.15263157E+03 E0= -.15262860E+03  d E =-.105541E-02
       N       E                     dE             d eps       ncg     rms          rms(c)
DAV:   1    -0.152631161830E+03    0.41813E-03   -0.91799E-01  2980   0.410E+00    0.203E-01
DAV:   2    -0.152632503845E+03   -0.13420E-02   -0.23213E-02  3380   0.594E-01    0.820E-02
DAV:   3    -0.152632337636E+03    0.16621E-03   -0.54252E-04  3510   0.106E-01    0.491E-02
DAV:   4    -0.152632240437E+03    0.97199E-04   -0.22236E-04  3610   0.926E-02    0.213E-02
DAV:   5    -0.152632205055E+03    0.35382E-04   -0.13029E-04  3540   0.702E-02    0.134E-02
DAV:   6    -0.152632187163E+03    0.17892E-04   -0.50126E-05  3390   0.539E-02    0.868E-03
DAV:   7    -0.152632169349E+03    0.17815E-04   -0.11205E-05  2300   0.492E-02    0.875E-03
DAV:   8    -0.152632153415E+03    0.15934E-04   -0.16235E-05  2720   0.537E-02    0.604E-03
DAV:   9    -0.152632148460E+03    0.49546E-05   -0.23093E-05  2640   0.363E-02
  48 F= -.15263215E+03 E0= -.15262906E+03  d E =-.163004E-02
       N       E                     dE             d eps       ncg     rms          rms(c)
DAV:   1    -0.152632405173E+03   -0.25176E-03   -0.35652E-01  3010   0.255E+00    0.803E-02
DAV:   2    -0.152633098878E+03   -0.69371E-03   -0.83324E-03  3450   0.359E-01    0.452E-02
DAV:   3    -0.152633049449E+03    0.49429E-04   -0.14501E-04  3510   0.541E-02    0.302E-02
DAV:   4    -0.152633017900E+03    0.31548E-04   -0.68447E-05  3420   0.519E-02    0.141E-02
DAV:   5    -0.152633004231E+03    0.13669E-04   -0.45332E-05  3390   0.503E-02    0.725E-03
DAV:   6    -0.152633001114E+03    0.31173E-05   -0.26700E-05  2530   0.310E-02
  49 F= -.15263300E+03 E0= -.15262987E+03  d E =-.852653E-03
       N       E                     dE             d eps       ncg     rms          rms(c)
DAV:   1    -0.152632360022E+03    0.64421E-03   -0.56794E-01  2980   0.322E+00    0.103E-01
DAV:   2    -0.152633445322E+03   -0.10853E-02   -0.13382E-02  3460   0.459E-01    0.574E-02
DAV:   3    -0.152633352032E+03    0.93290E-04   -0.26911E-04  3520   0.795E-02    0.385E-02
DAV:   4    -0.152633282260E+03    0.69772E-04   -0.96366E-05  3480   0.713E-02    0.197E-02
DAV:   5    -0.152633228181E+03    0.54079E-04   -0.70459E-05  3530   0.914E-02    0.965E-03
DAV:   6    -0.152633210843E+03    0.17337E-04   -0.79288E-05  3330   0.660E-02    0.101E-02
DAV:   7    -0.152633184395E+03    0.26448E-04   -0.93594E-06  2230   0.630E-02    0.657E-03
DAV:   8    -0.152633151616E+03    0.32779E-04   -0.13261E-05  2640   0.846E-02    0.734E-03
DAV:   9    -0.152633117329E+03    0.34287E-04   -0.34263E-05  3350   0.103E-01    0.465E-03
DAV:  10    -0.152633091154E+03    0.26175E-04   -0.43555E-05  3540   0.139E-01    0.896E-03
DAV:  11    -0.152633091815E+03   -0.66079E-06   -0.87899E-05  3240   0.625E-02
  50 F= -.15263309E+03 E0= -.15262991E+03  d E =-.943355E-03
       N       E                     dE             d eps       ncg     rms          rms(c)
DAV:   1    -0.152633065179E+03    0.25975E-04   -0.63835E-02  3050   0.108E+00    0.392E-02
DAV:   2    -0.152633186229E+03   -0.12105E-03   -0.15489E-03  3470   0.157E-01    0.177E-02
DAV:   3    -0.152633176747E+03    0.94816E-05   -0.39886E-05  2810   0.291E-02    0.116E-02
DAV:   4    -0.152633170849E+03    0.58979E-05   -0.10535E-05  2140   0.192E-02    0.636E-03
DAV:   5    -0.152633164941E+03    0.59082E-05   -0.83150E-06  2310   0.272E-02    0.328E-03
DAV:   6    -0.152633164094E+03    0.84732E-06   -0.80466E-06  2010   0.154E-02
  51 F= -.15263316E+03 E0= -.15263000E+03  d E =-.101563E-02
       N       E                     dE             d eps       ncg     rms          rms(c)
DAV:   1    -0.152633492385E+03   -0.32744E-03   -0.30011E-01  2950   0.236E+00    0.889E-02
DAV:   2    -0.152634010442E+03   -0.51806E-03   -0.71271E-03  3490   0.334E-01    0.421E-02
DAV:   3    -0.152633965581E+03    0.44861E-04   -0.13865E-04  3510   0.567E-02    0.275E-02
DAV:   4    -0.152633934859E+03    0.30722E-04   -0.76915E-05  3500   0.556E-02    0.121E-02
DAV:   5    -0.152633922535E+03    0.12324E-04   -0.42577E-05  3150   0.455E-02    0.811E-03
DAV:   6    -0.152633913677E+03    0.88581E-05   -0.13665E-05  2130   0.360E-02
  52 F= -.15263391E+03 E0= -.15263074E+03  d E =-.749583E-03
       N       E                     dE             d eps       ncg     rms          rms(c)
DAV:   1    -0.152633770907E+03    0.15163E-03   -0.19901E-01  2970   0.192E+00    0.728E-02
DAV:   2    -0.152634106495E+03   -0.33559E-03   -0.47376E-03  3490   0.275E-01    0.346E-02
DAV:   3    -0.152634069027E+03    0.37468E-04   -0.99207E-05  3510   0.537E-02    0.226E-02
DAV:   4    -0.152634032448E+03    0.36579E-04   -0.46118E-05  3250   0.561E-02    0.105E-02
DAV:   5    -0.152634011869E+03    0.20580E-04   -0.30300E-05  2610   0.493E-02    0.772E-03
DAV:   6    -0.152633992190E+03    0.19679E-04   -0.12478E-05  2260   0.531E-02    0.481E-03
DAV:   7    -0.152633968683E+03    0.23507E-04   -0.10082E-05  2320   0.647E-02    0.515E-03
DAV:   8    -0.152633931116E+03    0.37567E-04   -0.15901E-05  2740   0.108E-01    0.455E-03
DAV:   9    -0.152633896773E+03    0.34343E-04   -0.91653E-05  4280   0.171E-01    0.642E-03
DAV:  10    -0.152633898601E+03   -0.18284E-05   -0.88204E-05  3220   0.687E-02
  53 F= -.15263390E+03 E0= -.15263071E+03  d E =-.734508E-03
       N       E                     dE             d eps       ncg     rms          rms(c)
DAV:   1    -0.152633916360E+03   -0.19587E-04   -0.19737E-02  3130   0.606E-01    0.245E-02
DAV:   2    -0.152633949183E+03   -0.32823E-04   -0.47540E-04  3480   0.883E-02    0.111E-02
DAV:   3    -0.152633945514E+03    0.36685E-05   -0.13268E-05  2120   0.190E-02    0.719E-03
DAV:   4    -0.152633943141E+03    0.23731E-05   -0.53139E-06  2120   0.152E-02    0.346E-03
DAV:   5    -0.152633941800E+03    0.13408E-05   -0.30979E-06  2070   0.149E-02    0.206E-03
DAV:   6    -0.152633941242E+03    0.55884E-06   -0.22095E-06  2000   0.119E-02
  54 F= -.15263394E+03 E0= -.15263076E+03  d E =-.777148E-03
       N       E                     dE             d eps       ncg     rms          rms(c)
DAV:   1    -0.152633913182E+03    0.28618E-04   -0.42429E-01  2940   0.278E+00    0.967E-02
DAV:   2    -0.152634743451E+03   -0.83027E-03   -0.99549E-03  3420   0.394E-01    0.473E-02
DAV:   3    -0.152634692066E+03    0.51386E-04   -0.18327E-04  3540   0.541E-02    0.324E-02
DAV:   4    -0.152634661967E+03    0.30099E-04   -0.80567E-05  3450   0.435E-02    0.140E-02
DAV:   5    -0.152634652156E+03    0.98106E-05   -0.33260E-05  2720   0.367E-02    0.847E-03
DAV:   6    -0.152634649276E+03    0.28804E-05   -0.18089E-05  2160   0.273E-02
  55 F= -.15263465E+03 E0= -.15263146E+03  d E =-.708034E-03
       N       E                     dE             d eps       ncg     rms          rms(c)
DAV:   1    -0.152633340746E+03    0.13114E-02   -0.96429E-01  2940   0.420E+00    0.147E-01
DAV:   2    -0.152635238064E+03   -0.18973E-02   -0.22772E-02  3420   0.595E-01    0.716E-02
DAV:   3    -0.152635115082E+03    0.12298E-03   -0.39050E-04  3540   0.811E-02    0.488E-02
DAV:   4    -0.152635038450E+03    0.76633E-04   -0.19916E-04  3490   0.711E-02    0.203E-02
DAV:   5    -0.152635013231E+03    0.25219E-04   -0.85230E-05  3520   0.582E-02    0.134E-02
DAV:   6    -0.152635002763E+03    0.10468E-04   -0.49006E-05  3310   0.457E-02    0.829E-03
DAV:   7    -0.152634993324E+03    0.94388E-05   -0.14039E-05  2260   0.341E-02
  56 F= -.15263499E+03 E0= -.15263179E+03  d E =-.105208E-02
       N       E                     dE             d eps       ncg     rms          rms(c)
DAV:   1    -0.152634906650E+03    0.96113E-04   -0.52213E-01  2960   0.304E+00    0.983E-02
DAV:   2    -0.152635905321E+03   -0.99867E-03   -0.11552E-02  3450   0.421E-01    0.549E-02
DAV:   3    -0.152635823882E+03    0.81439E-04   -0.14939E-04  3520   0.667E-02    0.364E-02
DAV:   4    -0.152635755409E+03    0.68473E-04   -0.12127E-04  3580   0.852E-02    0.127E-02
DAV:   5    -0.152635742863E+03    0.12546E-04   -0.10777E-04  3470   0.613E-02    0.117E-02
DAV:   6    -0.152635739483E+03    0.33807E-05   -0.28090E-05  2740   0.233E-02
  57 F= -.15263574E+03 E0= -.15263254E+03  d E =-.746158E-03
       N       E                     dE             d eps       ncg     rms          rms(c)
DAV:   1    -0.152634919960E+03    0.82290E-03   -0.62981E-01  2960   0.334E+00    0.111E-01
DAV:   2    -0.152636092913E+03   -0.11730E-02   -0.13860E-02  3470   0.464E-01    0.597E-02
DAV:   3    -0.152635981416E+03    0.11150E-03   -0.19573E-04  3580   0.848E-02    0.399E-02
DAV:   4    -0.152635875944E+03    0.10547E-03   -0.14187E-04  3890   0.108E-01    0.157E-02
DAV:   5    -0.152635838654E+03    0.37290E-04   -0.14120E-04  3530   0.873E-02    0.126E-02
DAV:   6    -0.152635820358E+03    0.18296E-04   -0.60085E-05  3300   0.480E-02    0.885E-03
DAV:   7    -0.152635782850E+03    0.37507E-04   -0.11826E-05  2350   0.629E-02    0.948E-03
DAV:   8    -0.152635753459E+03    0.29391E-04   -0.14437E-05  2690   0.617E-02    0.111E-02
DAV:   9    -0.152635707112E+03    0.46348E-04   -0.74897E-05  4010   0.138E-01    0.127E-02
DAV:  10    -0.152635680257E+03    0.26855E-04   -0.64428E-05  3630   0.112E-01    0.139E-02
DAV:  11    -0.152635666013E+03    0.14244E-04   -0.56723E-05  3130   0.453E-02    0.558E-03
DAV:  12    -0.152635648645E+03    0.17368E-04   -0.49812E-05  3510   0.102E-01    0.171E-02
DAV:  13    -0.152635641974E+03    0.66713E-05   -0.28579E-05  2840   0.483E-02
  58 F= -.15263564E+03 E0= -.15263245E+03  d E =-.648649E-03
       N       E                     dE             d eps       ncg     rms          rms(c)
DAV:   1    -0.152635592384E+03    0.56261E-04   -0.95756E-02  3010   0.130E+00    0.424E-02
DAV:   2    -0.152635770110E+03   -0.17773E-03   -0.20858E-03  3480   0.180E-01    0.234E-02
DAV:   3    -0.152635753845E+03    0.16265E-04   -0.27311E-05  2720   0.306E-02    0.155E-02
DAV:   4    -0.152635738642E+03    0.15202E-04   -0.27001E-05  2910   0.427E-02    0.533E-03
DAV:   5    -0.152635737454E+03    0.11889E-05   -0.27582E-05  2770   0.272E-02    0.681E-03
DAV:   6    -0.152635737833E+03   -0.37976E-06   -0.52561E-06  1950   0.871E-03
  59 F= -.15263574E+03 E0= -.15263255E+03  d E =-.744509E-03
       N       E                     dE             d eps       ncg     rms          rms(c)
DAV:   1    -0.152636061750E+03   -0.32430E-03   -0.14809E-01  2980   0.164E+00    0.540E-02
DAV:   2    -0.152636309917E+03   -0.24817E-03   -0.32325E-03  3450   0.224E-01    0.294E-02
DAV:   3    -0.152636288859E+03    0.21058E-04   -0.59942E-05  3010   0.325E-02    0.192E-02
DAV:   4    -0.152636270281E+03    0.18577E-04   -0.29396E-05  2720   0.377E-02    0.697E-03
DAV:   5    -0.152636263703E+03    0.65783E-05   -0.19998E-05  2160   0.283E-02    0.688E-03
DAV:   6    -0.152636256875E+03    0.68280E-05   -0.61201E-06  2120   0.269E-02
  60 F= -.15263626E+03 E0= -.15263308E+03  d E =-.519042E-03
       N       E                     dE             d eps       ncg     rms          rms(c)
DAV:   1    -0.152636135939E+03    0.12776E-03   -0.18154E-01  2970   0.182E+00    0.619E-02
DAV:   2    -0.152636445249E+03   -0.30931E-03   -0.41397E-03  3460   0.256E-01    0.334E-02
DAV:   3    -0.152636411000E+03    0.34248E-04   -0.84221E-05  3430   0.402E-02    0.221E-02
DAV:   4    -0.152636368219E+03    0.42782E-04   -0.48456E-05  3480   0.525E-02    0.956E-03
DAV:   5    -0.152636349260E+03    0.18958E-04   -0.22192E-05  2270   0.381E-02    0.972E-03
DAV:   6    -0.152636311527E+03    0.37734E-04   -0.24014E-05  2650   0.792E-02    0.591E-03
DAV:   7    -0.152636292571E+03    0.18956E-04   -0.36719E-05  3010   0.494E-02    0.923E-03
DAV:   8    -0.152636283649E+03    0.89228E-05   -0.19171E-05  2260   0.238E-02
  61 F= -.15263628E+03 E0= -.15263312E+03  d E =-.545815E-03
       N       E                     dE             d eps       ncg     rms          rms(c)
DAV:   1    -0.152636242800E+03    0.49771E-04   -0.10893E-02  3280   0.476E-01    0.459E-02
DAV:   2    -0.152636265369E+03   -0.22569E-04   -0.86396E-04  3430   0.130E-01    0.205E-02
DAV:   3    -0.152636260953E+03    0.44166E-05   -0.67087E-05  3230   0.375E-02    0.110E-02
DAV:   4    -0.152636258767E+03    0.21857E-05   -0.10624E-05  1990   0.145E-02    0.463E-03
DAV:   5    -0.152636257104E+03    0.16633E-05   -0.34780E-06  2030   0.134E-02    0.278E-03
DAV:   6    -0.152636256064E+03    0.10398E-05   -0.14085E-06  2000   0.111E-02
  62 F= -.15263626E+03 E0= -.15263308E+03  d E =-.518231E-03
       N       E                     dE             d eps       ncg     rms          rms(c)
DAV:   1    -0.152636230979E+03    0.26125E-04   -0.25439E-02  3000   0.683E-01    0.236E-02
DAV:   2    -0.152636274998E+03   -0.44019E-04   -0.56221E-04  3450   0.934E-02    0.119E-02
DAV:   3    -0.152636271788E+03    0.32094E-05   -0.10060E-05  2250   0.134E-02    0.781E-03
DAV:   4    -0.152636269885E+03    0.19030E-05   -0.51719E-06  2070   0.149E-02    0.290E-03
DAV:   5    -0.152636269535E+03    0.34996E-06   -0.41344E-06  2010   0.114E-02    0.243E-03
DAV:   6    -0.152636269474E+03    0.61533E-07   -0.11971E-06  1910   0.560E-03
  63 F= -.15263627E+03 E0= -.15263309E+03  d E =-.531640E-03
       N       E                     dE             d eps       ncg     rms          rms(c)
DAV:   1    -0.152636487936E+03   -0.21840E-03   -0.43746E-02  3060   0.902E-01    0.293E-02
DAV:   2    -0.152636565624E+03   -0.77688E-04   -0.10565E-03  3490   0.136E-01    0.184E-02
DAV:   3    -0.152636553982E+03    0.11642E-04   -0.34450E-05  3150   0.341E-02    0.140E-02
DAV:   4    -0.152636543490E+03    0.10492E-04   -0.10938E-05  2190   0.259E-02    0.768E-03
DAV:   5    -0.152636531769E+03    0.11721E-04   -0.12769E-05  2450   0.415E-02    0.494E-03
DAV:   6    -0.152636528083E+03    0.36855E-05   -0.18002E-05  2630   0.313E-02
  64 F= -.15263653E+03 E0= -.15263335E+03  d E =-.258609E-03
       N       E                     dE             d eps       ncg     rms          rms(c)
DAV:   1    -0.152636558544E+03   -0.26775E-04   -0.38406E-02  3130   0.846E-01    0.268E-02
DAV:   2    -0.152636626013E+03   -0.67469E-04   -0.94106E-04  3510   0.128E-01    0.178E-02
DAV:   3    -0.152636613078E+03    0.12935E-04   -0.25208E-05  2760   0.319E-02    0.135E-02
DAV:   4    -0.152636597554E+03    0.15524E-04   -0.11857E-05  2310   0.330E-02    0.694E-03
DAV:   5    -0.152636585017E+03    0.12537E-04   -0.15985E-05  2620   0.432E-02    0.530E-03
DAV:   6    -0.152636580507E+03    0.45098E-05   -0.20643E-05  2720   0.359E-02
  65 F= -.15263658E+03 E0= -.15263340E+03  d E =-.311033E-03
       N       E                     dE             d eps       ncg     rms          rms(c)
DAV:   1    -0.152636713984E+03   -0.12897E-03   -0.44655E-02  2980   0.909E-01    0.296E-02
DAV:   2    -0.152636804641E+03   -0.90657E-04   -0.10414E-03  3380   0.125E-01    0.155E-02
DAV:   3    -0.152636799351E+03    0.52892E-05   -0.14984E-05  2440   0.200E-02    0.104E-02
DAV:   4    -0.152636795771E+03    0.35806E-05   -0.65037E-06  2060   0.183E-02    0.466E-03
DAV:   5    -0.152636794652E+03    0.11193E-05   -0.57943E-06  2100   0.172E-02    0.233E-03
DAV:   6    -0.152636794486E+03    0.16567E-06   -0.32622E-06  1990   0.963E-03
  66 F= -.15263679E+03 E0= -.15263361E+03  d E =-.213979E-03
       N       E                     dE             d eps       ncg     rms          rms(c)
DAV:   1    -0.152636371692E+03    0.42296E-03   -0.40197E-01  2940   0.273E+00    0.896E-02
DAV:   2    -0.152637219745E+03   -0.84805E-03   -0.96523E-03  3410   0.383E-01    0.470E-02
DAV:   3    -0.152637176913E+03    0.42832E-04   -0.14947E-04  3530   0.564E-02    0.336E-02
DAV:   4    -0.152637151311E+03    0.25602E-04   -0.82214E-05  3460   0.443E-02    0.148E-02
DAV:   5    -0.152637144537E+03    0.67737E-05   -0.27881E-05  2910   0.283E-02    0.810E-03
DAV:   6    -0.152637143972E+03    0.56455E-06   -0.15335E-05  2310   0.199E-02
  67 F= -.15263714E+03 E0= -.15263395E+03  d E =-.563465E-03
       N       E                     dE             d eps       ncg     rms          rms(c)
DAV:   1    -0.152637312511E+03   -0.16797E-03   -0.63543E-02  2960   0.108E+00    0.439E-02
DAV:   2    -0.152637431369E+03   -0.11886E-03   -0.15676E-03  3520   0.164E-01    0.244E-02
DAV:   3    -0.152637418907E+03    0.12461E-04   -0.38486E-05  3140   0.301E-02    0.171E-02
DAV:   4    -0.152637407340E+03    0.11567E-04   -0.28715E-05  2920   0.288E-02    0.741E-03
DAV:   5    -0.152637403267E+03    0.40738E-05   -0.76405E-06  2060   0.231E-02    0.606E-03
DAV:   6    -0.152637400561E+03    0.27053E-05   -0.58950E-06  2100   0.196E-02
  68 F= -.15263740E+03 E0= -.15263420E+03  d E =-.256589E-03
       N       E                     dE             d eps       ncg     rms          rms(c)
DAV:   1    -0.152637403855E+03   -0.58878E-06   -0.26583E-02  3040   0.701E-01    0.276E-02
DAV:   2    -0.152637454076E+03   -0.50221E-04   -0.68957E-04  3520   0.110E-01    0.174E-02
DAV:   3    -0.152637445632E+03    0.84441E-05   -0.15927E-05  2160   0.218E-02    0.121E-02
DAV:   4    -0.152637433556E+03    0.12075E-04   -0.17154E-05  2320   0.308E-02    0.527E-03
DAV:   5    -0.152637430140E+03    0.34160E-05   -0.77590E-06  2010   0.199E-02    0.529E-03
DAV:   6    -0.152637427092E+03    0.30481E-05   -0.48232E-06  2090   0.185E-02
  69 F= -.15263743E+03 E0= -.15263423E+03  d E =-.283120E-03
       N       E                     dE             d eps       ncg     rms          rms(c)
DAV:   1    -0.152637400198E+03    0.29943E-04   -0.12162E-01  2960   0.149E+00    0.601E-02
DAV:   2    -0.152637629718E+03   -0.22952E-03   -0.28000E-03  3460   0.206E-01    0.333E-02
DAV:   3    -0.152637605453E+03    0.24265E-04   -0.31106E-05  2970   0.321E-02    0.209E-02
DAV:   4    -0.152637591252E+03    0.14201E-04   -0.56570E-05  3310   0.456E-02    0.644E-03
DAV:   5    -0.152637591004E+03    0.24842E-06   -0.21004E-05  2180   0.192E-02    0.660E-03
DAV:   6    -0.152637589578E+03    0.14257E-05   -0.33457E-06  2030   0.889E-03
  70 F= -.15263759E+03 E0= -.15263440E+03  d E =-.162486E-03
       N       E                     dE             d eps       ncg     rms          rms(c)
DAV:   1    -0.152637522030E+03    0.68973E-04   -0.62436E-02  2960   0.107E+00    0.430E-02
DAV:   2    -0.152637634500E+03   -0.11247E-03   -0.13873E-03  3480   0.146E-01    0.232E-02
DAV:   3    -0.152637621276E+03    0.13224E-04   -0.14593E-05  2420   0.252E-02    0.146E-02
DAV:   4    -0.152637611663E+03    0.96136E-05   -0.24271E-05  2830   0.385E-02    0.349E-03
DAV:   5    -0.152637611866E+03   -0.20306E-06   -0.18293E-05  2050   0.186E-02    0.522E-03
DAV:   6    -0.152637611284E+03    0.58214E-06   -0.16285E-06  1990   0.547E-03
  71 F= -.15263761E+03 E0= -.15263444E+03  d E =-.184191E-03
       N       E                     dE             d eps       ncg     rms          rms(c)
DAV:   1    -0.152637604965E+03    0.69005E-05   -0.10337E-01  2960   0.138E+00    0.515E-02
DAV:   2    -0.152637791552E+03   -0.18659E-03   -0.25205E-03  3460   0.198E-01    0.266E-02
DAV:   3    -0.152637771085E+03    0.20467E-04   -0.49998E-05  3480   0.437E-02    0.179E-02
DAV:   4    -0.152637752375E+03    0.18710E-04   -0.22827E-05  2660   0.421E-02    0.818E-03
DAV:   5    -0.152637742326E+03    0.10049E-04   -0.17514E-05  2370   0.415E-02    0.540E-03
DAV:   6    -0.152637735648E+03    0.66771E-05   -0.13707E-05  2210   0.380E-02
  72 F= -.15263774E+03 E0= -.15263456E+03  d E =-.124365E-03
       N       E                     dE             d eps       ncg     rms          rms(c)
DAV:   1    -0.152637728869E+03    0.13456E-04   -0.73926E-06  2140   0.382E-02    0.463E-03
DAV:   2    -0.152637726733E+03    0.21357E-05   -0.11641E-05  2030   0.202E-02    0.461E-03
DAV:   3    -0.152637723682E+03    0.30513E-05   -0.22728E-06  2030   0.136E-02    0.215E-03
DAV:   4    -0.152637720043E+03    0.36393E-05   -0.13093E-06  2110   0.192E-02    0.242E-03
DAV:   5    -0.152637713577E+03    0.64659E-05   -0.18733E-06  2200   0.416E-02    0.259E-03
DAV:   6    -0.152637703290E+03    0.10287E-04   -0.19846E-05  2860   0.120E-01    0.379E-03
DAV:   7    -0.152637706802E+03   -0.35120E-05   -0.37707E-05  2850   0.160E-02
  73 F= -.15263771E+03 E0= -.15263454E+03  d E =-.955187E-04
       N       E                     dE             d eps       ncg     rms          rms(c)
DAV:   1    -0.152637707327E+03   -0.40368E-05   -0.41590E-06  1990   0.910E-03    0.284E-03
DAV:   2    -0.152637706966E+03    0.36117E-06   -0.88480E-07  1980   0.656E-03    0.110E-03
DAV:   3    -0.152637706776E+03    0.19039E-06   -0.57863E-07  1880   0.510E-03    0.844E-04
DAV:   4    -0.152637706619E+03    0.15645E-06   -0.21472E-07  1880   0.318E-03    0.583E-04
DAV:   5    -0.152637706423E+03    0.19579E-06   -0.12095E-07  1950   0.447E-03    0.655E-04
DAV:   6    -0.152637706192E+03    0.23162E-06   -0.14660E-07  2050   0.636E-03
  74 F= -.15263771E+03 E0= -.15263454E+03  d E =-.949081E-04
       N       E                     dE             d eps       ncg     rms          rms(c)
DAV:   1    -0.152637706011E+03    0.41277E-06   -0.25459E-07  2000   0.710E-03    0.423E-04
DAV:   2    -0.152637705998E+03    0.12188E-07   -0.31026E-07  1850   0.240E-03    0.553E-04
DAV:   3    -0.152637705989E+03    0.89194E-08   -0.41855E-08  1620   0.854E-04    0.517E-04
DAV:   4    -0.152637705972E+03    0.17800E-07   -0.11128E-08  1620   0.664E-04    0.341E-04
DAV:   5    -0.152637705902E+03    0.69435E-07   -0.13631E-07  1860   0.417E-03    0.926E-04
DAV:   6    -0.152637705860E+03    0.42198E-07   -0.95838E-08  1700   0.247E-03
  75 F= -.15263771E+03 E0= -.15263454E+03  d E =-.945764E-04
       N       E                     dE             d eps       ncg     rms          rms(c)
DAV:   1    -0.152637705849E+03    0.52924E-07   -0.10993E-07  1560   0.151E-03    0.656E-04
DAV:   2    -0.152637705835E+03    0.14724E-07   -0.42044E-08  1560   0.133E-03    0.220E-04
DAV:   3    -0.152637705824E+03    0.10136E-07   -0.24131E-08  1560   0.994E-04    0.194E-04
DAV:   4    -0.152637705802E+03    0.22304E-07   -0.66115E-09  1560   0.138E-03    0.178E-04
DAV:   5    -0.152637705749E+03    0.53130E-07   -0.19274E-08  1800   0.383E-03    0.325E-04
DAV:   6    -0.152637705723E+03    0.26173E-07   -0.43932E-08  1720   0.284E-03
  76 F= -.15263771E+03 E0= -.15263453E+03  d E =-.944392E-04
       N       E                     dE             d eps       ncg     rms          rms(c)
DAV:   1    -0.152637499925E+03    0.20582E-03   -0.10339E-01  2940   0.138E+00    0.520E-02
DAV:   2    -0.152637691646E+03   -0.19172E-03   -0.25571E-03  3460   0.199E-01    0.266E-02
DAV:   3    -0.152637670299E+03    0.21347E-04   -0.49533E-05  3480   0.422E-02    0.179E-02
DAV:   4    -0.152637652775E+03    0.17524E-04   -0.22639E-05  2640   0.393E-02    0.798E-03
DAV:   5    -0.152637644112E+03    0.86627E-05   -0.16182E-05  2270   0.378E-02    0.532E-03
DAV:   6    -0.152637638942E+03    0.51706E-05   -0.13588E-05  2140   0.313E-02
  77 F= -.15263764E+03 E0= -.15263446E+03  d E =-.276581E-04
