       N       E                     dE             d eps       ncg     rms          rms(c)
DAV:   1     0.504221675263E+03    0.50422E+03   -0.44182E+04  2720   0.135E+03
DAV:   2    -0.101545978479E+03   -0.60577E+03   -0.57632E+03  3456   0.259E+02
DAV:   3    -0.157332997390E+03   -0.55787E+02   -0.55493E+02  3152   0.857E+01
DAV:   4    -0.158035197867E+03   -0.70220E+00   -0.70118E+00  3136   0.104E+01
DAV:   5    -0.158045664979E+03   -0.10467E-01   -0.10464E-01  3240   0.125E+00    0.236E+01
DAV:   6    -0.141054386242E+03    0.16991E+02   -0.93774E+01  3184   0.334E+01    0.792E+00
DAV:   7    -0.141074678024E+03   -0.20292E-01   -0.35970E+00  3000   0.655E+00    0.498E+00
DAV:   8    -0.140911931519E+03    0.16275E+00   -0.79139E-01  3112   0.461E+00    0.131E+00
DAV:   9    -0.140867853101E+03    0.44078E-01   -0.15803E-01  3096   0.192E+00    0.653E-01
DAV:  10    -0.140860384515E+03    0.74686E-02   -0.82729E-02  3048   0.105E+00    0.286E-01
DAV:  11    -0.140852506690E+03    0.78778E-02   -0.78959E-03  3472   0.714E-01    0.215E-01
DAV:  12    -0.140847569615E+03    0.49371E-02   -0.54192E-03  3472   0.486E-01    0.161E-01
DAV:  13    -0.140838334314E+03    0.92353E-02   -0.61760E-03  4160   0.831E-01    0.904E-02
DAV:  14    -0.140832149832E+03    0.61845E-02   -0.10551E-02  3752   0.848E-01    0.128E-01
DAV:  15    -0.140823921462E+03    0.82284E-02   -0.90610E-03  4152   0.127E+00    0.910E-02
DAV:  16    -0.140820698160E+03    0.32233E-02   -0.92668E-03  3216   0.894E-01    0.836E-02
DAV:  17    -0.140819219257E+03    0.14789E-02   -0.62985E-03  3088   0.565E-01    0.655E-02
DAV:  18    -0.140817293753E+03    0.19255E-02   -0.24714E-03  4352   0.725E-01    0.699E-02
DAV:  19    -0.140816361839E+03    0.93191E-03   -0.26887E-03  3824   0.626E-01    0.512E-02
DAV:  20    -0.140816022524E+03    0.33932E-03   -0.36618E-03  4120   0.685E-01    0.631E-02
DAV:  21    -0.140816192905E+03   -0.17038E-03   -0.31484E-03  2968   0.238E-01    0.688E-02
DAV:  22    -0.140816118707E+03    0.74198E-04   -0.42069E-04  2936   0.107E-01    0.374E-02
DAV:  23    -0.140816104356E+03    0.14351E-04   -0.12449E-04  2928   0.620E-02    0.203E-02
DAV:  24    -0.140816096962E+03    0.73934E-05   -0.41212E-05  2616   0.286E-02
   1 F= -.14081610E+03 E0= -.14081364E+03  d E =-.140816E+03
       N       E                     dE             d eps       ncg     rms          rms(c)
DAV:   1    -0.140813508320E+03    0.25960E-02   -0.17526E+00  2704   0.510E+00    0.277E-01
DAV:   2    -0.140818280623E+03   -0.47723E-02   -0.70128E-02  2952   0.839E-01    0.222E-01
DAV:   3    -0.140817177407E+03    0.11032E-02   -0.12193E-03  3136   0.196E-01    0.147E-01
DAV:   4    -0.140816074901E+03    0.11025E-02   -0.27892E-03  3048   0.295E-01    0.420E-02
DAV:   5    -0.140815983341E+03    0.91560E-04   -0.10828E-03  3048   0.156E-01    0.297E-02
DAV:   6    -0.140815854269E+03    0.12907E-03   -0.14616E-04  3264   0.863E-02    0.230E-02
DAV:   7    -0.140815789429E+03    0.64840E-04   -0.80295E-05  3064   0.588E-02    0.169E-02
DAV:   8    -0.140815651534E+03    0.13789E-03   -0.97937E-05  3328   0.101E-01    0.981E-03
DAV:   9    -0.140815600574E+03    0.50960E-04   -0.12074E-04  3240   0.759E-02    0.117E-02
DAV:  10    -0.140815569208E+03    0.31366E-04   -0.89120E-05  3080   0.671E-02    0.177E-02
DAV:  11    -0.140815519744E+03    0.49464E-04   -0.27972E-05  2472   0.838E-02    0.150E-02
DAV:  12    -0.140815485815E+03    0.33929E-04   -0.67347E-05  3176   0.848E-02    0.944E-03
DAV:  13    -0.140815467616E+03    0.18199E-04   -0.68780E-05  2952   0.785E-02    0.736E-03
DAV:  14    -0.140815443833E+03    0.23783E-04   -0.45577E-05  2800   0.114E-01    0.886E-03
DAV:  15    -0.140815439502E+03    0.43314E-05   -0.61227E-05  2576   0.626E-02
   2 F= -.14081544E+03 E0= -.14081304E+03  d E =0.657461E-03
       N       E                     dE             d eps       ncg     rms          rms(c)
DAV:   1    -0.140820113594E+03   -0.46698E-02   -0.45898E-01  2720   0.262E+00    0.143E-01
DAV:   2    -0.140821281670E+03   -0.11681E-02   -0.17911E-02  2960   0.436E-01    0.111E-01
DAV:   3    -0.140820982344E+03    0.29933E-03   -0.30807E-04  3168   0.101E-01    0.734E-02
DAV:   4    -0.140820687514E+03    0.29483E-03   -0.68573E-04  3104   0.156E-01    0.197E-02
DAV:   5    -0.140820660946E+03    0.26568E-04   -0.28937E-04  3040   0.843E-02    0.149E-02
DAV:   6    -0.140820630994E+03    0.29952E-04   -0.34831E-05  2632   0.429E-02    0.112E-02
DAV:   7    -0.140820612813E+03    0.18181E-04   -0.19281E-05  2160   0.333E-02    0.785E-03
DAV:   8    -0.140820577819E+03    0.34994E-04   -0.28985E-05  2496   0.605E-02    0.525E-03
DAV:   9    -0.140820571290E+03    0.65289E-05   -0.36119E-05  2552   0.309E-02
   3 F= -.14082057E+03 E0= -.14081810E+03  d E =-.447433E-02
       N       E                     dE             d eps       ncg     rms          rms(c)
DAV:   1    -0.140821518436E+03   -0.94062E-03   -0.15049E-01  2744   0.162E+00    0.637E-02
DAV:   2    -0.140821826778E+03   -0.30834E-03   -0.39114E-03  3008   0.231E-01    0.385E-02
DAV:   3    -0.140821786406E+03    0.40372E-04   -0.72058E-05  3056   0.408E-02    0.254E-02
DAV:   4    -0.140821750252E+03    0.36154E-04   -0.33379E-05  2536   0.391E-02    0.120E-02
DAV:   5    -0.140821723225E+03    0.27027E-04   -0.21569E-05  2320   0.420E-02    0.605E-03
DAV:   6    -0.140821695670E+03    0.27555E-04   -0.12821E-05  1944   0.455E-02    0.480E-03
DAV:   7    -0.140821672601E+03    0.23069E-04   -0.14600E-05  1968   0.429E-02    0.518E-03
DAV:   8    -0.140821624625E+03    0.47975E-04   -0.32268E-05  2648   0.960E-02    0.520E-03
DAV:   9    -0.140821571853E+03    0.52773E-04   -0.10715E-04  3504   0.164E-01    0.106E-02
DAV:  10    -0.140821575848E+03   -0.39954E-05   -0.11188E-04  2608   0.412E-02    0.110E-02
DAV:  11    -0.140821575333E+03    0.51494E-06   -0.15259E-05  1856   0.156E-02
   4 F= -.14082158E+03 E0= -.14081911E+03  d E =-.100404E-02
       N       E                     dE             d eps       ncg     rms          rms(c)
DAV:   1    -0.140821781038E+03   -0.20519E-03   -0.16687E-01  2720   0.170E+00    0.679E-02
DAV:   2    -0.140822133916E+03   -0.35288E-03   -0.43624E-03  3000   0.241E-01    0.410E-02
DAV:   3    -0.140822094673E+03    0.39243E-04   -0.78352E-05  3024   0.404E-02    0.261E-02
DAV:   4    -0.140822068398E+03    0.26276E-04   -0.35805E-05  2608   0.325E-02    0.120E-02
DAV:   5    -0.140822051351E+03    0.17047E-04   -0.19643E-05  2240   0.332E-02    0.511E-03
DAV:   6    -0.140822038353E+03    0.12998E-04   -0.11440E-05  1784   0.295E-02    0.397E-03
DAV:   7    -0.140822027613E+03    0.10740E-04   -0.65909E-06  1760   0.251E-02    0.369E-03
DAV:   8    -0.140822011421E+03    0.16192E-04   -0.51235E-06  1784   0.374E-02    0.319E-03
DAV:   9    -0.140821975013E+03    0.36408E-04   -0.42137E-05  2800   0.105E-01    0.561E-03
DAV:  10    -0.140821966635E+03    0.83782E-05   -0.49493E-05  2600   0.580E-02
   5 F= -.14082197E+03 E0= -.14081953E+03  d E =-.139535E-02
       N       E                     dE             d eps       ncg     rms          rms(c)
DAV:   1    -0.140822623031E+03   -0.64802E-03   -0.13605E-01  2752   0.147E+00    0.566E-02
DAV:   2    -0.140822897061E+03   -0.27403E-03   -0.33203E-03  2952   0.202E-01    0.325E-02
DAV:   3    -0.140822874018E+03    0.23043E-04   -0.50178E-05  3000   0.383E-02    0.222E-02
DAV:   4    -0.140822861388E+03    0.12630E-04   -0.46600E-05  2768   0.401E-02    0.899E-03
DAV:   5    -0.140822860501E+03    0.88693E-06   -0.17378E-05  2136   0.201E-02    0.489E-03
DAV:   6    -0.140822859628E+03    0.87260E-06   -0.52719E-06  1624   0.119E-02
   6 F= -.14082286E+03 E0= -.14082044E+03  d E =-.892994E-03
       N       E                     dE             d eps       ncg     rms          rms(c)
DAV:   1    -0.140822189549E+03    0.67095E-03   -0.12263E+00  2712   0.440E+00    0.172E-01
DAV:   2    -0.140824664159E+03   -0.24746E-02   -0.29965E-02  2936   0.604E-01    0.940E-02
DAV:   3    -0.140824446546E+03    0.21761E-03   -0.42426E-04  3104   0.119E-01    0.633E-02
DAV:   4    -0.140824318835E+03    0.12771E-03   -0.35628E-04  3112   0.126E-01    0.255E-02
DAV:   5    -0.140824302298E+03    0.16537E-04   -0.18678E-04  3040   0.764E-02    0.141E-02
DAV:   6    -0.140824288329E+03    0.13969E-04   -0.37065E-05  2528   0.349E-02    0.740E-03
DAV:   7    -0.140824275353E+03    0.12976E-04   -0.50990E-06  1688   0.311E-02    0.476E-03
DAV:   8    -0.140824264758E+03    0.10595E-04   -0.89552E-06  1904   0.339E-02    0.352E-03
DAV:   9    -0.140824247099E+03    0.17659E-04   -0.10680E-05  1960   0.607E-02    0.356E-03
DAV:  10    -0.140824234408E+03    0.12692E-04   -0.26431E-05  2264   0.595E-02    0.415E-03
DAV:  11    -0.140824230623E+03    0.37850E-05   -0.23981E-05  2184   0.317E-02
   7 F= -.14082423E+03 E0= -.14082187E+03  d E =-.226399E-02
       N       E                     dE             d eps       ncg     rms          rms(c)
DAV:   1    -0.140825073520E+03   -0.83911E-03   -0.33096E-02  2768   0.789E-01    0.386E-02
DAV:   2    -0.140825111742E+03   -0.38222E-04   -0.80240E-04  3024   0.117E-01    0.221E-02
DAV:   3    -0.140825099611E+03    0.12131E-04   -0.43532E-05  2744   0.290E-02    0.149E-02
DAV:   4    -0.140825084899E+03    0.14712E-04   -0.13668E-05  1904   0.224E-02    0.746E-03
DAV:   5    -0.140825070711E+03    0.14188E-04   -0.69798E-06  1928   0.253E-02    0.556E-03
DAV:   6    -0.140825063457E+03    0.72537E-05   -0.13389E-05  1992   0.210E-02
   8 F= -.14082506E+03 E0= -.14082276E+03  d E =-.832835E-03
       N       E                     dE             d eps       ncg     rms          rms(c)
DAV:   1    -0.140825447477E+03   -0.37677E-03   -0.66526E-02  2736   0.112E+00    0.549E-02
DAV:   2    -0.140825530790E+03   -0.83313E-04   -0.16951E-03  3008   0.169E-01    0.321E-02
DAV:   3    -0.140825505272E+03    0.25518E-04   -0.93409E-05  2992   0.441E-02    0.217E-02
DAV:   4    -0.140825476094E+03    0.29178E-04   -0.33192E-05  2760   0.341E-02    0.117E-02
DAV:   5    -0.140825442895E+03    0.33199E-04   -0.11339E-05  2040   0.384E-02    0.762E-03
DAV:   6    -0.140825421026E+03    0.21870E-04   -0.29014E-05  2344   0.357E-02    0.616E-03
DAV:   7    -0.140825399983E+03    0.21043E-04   -0.85640E-06  1872   0.334E-02    0.479E-03
DAV:   8    -0.140825350923E+03    0.49060E-04   -0.32907E-05  2648   0.933E-02    0.640E-03
DAV:   9    -0.140825335926E+03    0.14996E-04   -0.42952E-05  2648   0.538E-02    0.736E-03
DAV:  10    -0.140825324665E+03    0.11261E-04   -0.17233E-05  2112   0.522E-02    0.438E-03
DAV:  11    -0.140825313191E+03    0.11475E-04   -0.10743E-05  2032   0.705E-02    0.296E-03
DAV:  12    -0.140825309780E+03    0.34107E-05   -0.33405E-05  2392   0.632E-02
   9 F= -.14082531E+03 E0= -.14082311E+03  d E =-.107916E-02
       N       E                     dE             d eps       ncg     rms          rms(c)
DAV:   1    -0.140825610648E+03   -0.29746E-03   -0.10800E-01  2736   0.143E+00    0.480E-02
DAV:   2    -0.140825834260E+03   -0.22361E-03   -0.24814E-03  2968   0.197E-01    0.245E-02
DAV:   3    -0.140825823230E+03    0.11030E-04   -0.26899E-05  2432   0.251E-02    0.169E-02
DAV:   4    -0.140825816828E+03    0.64024E-05   -0.35954E-05  2648   0.329E-02    0.619E-03
DAV:   5    -0.140825817439E+03   -0.61140E-06   -0.10698E-05  1632   0.139E-02    0.568E-03
DAV:   6    -0.140825816990E+03    0.44855E-06   -0.53572E-06  1512   0.123E-02
  10 F= -.14082582E+03 E0= -.14082366E+03  d E =-.507211E-03
       N       E                     dE             d eps       ncg     rms          rms(c)
DAV:   1    -0.140824988427E+03    0.82901E-03   -0.97113E-01  2688   0.430E+00    0.143E-01
DAV:   2    -0.140827024591E+03   -0.20362E-02   -0.22583E-02  2920   0.594E-01    0.758E-02
DAV:   3    -0.140826920919E+03    0.10367E-03   -0.26334E-04  3088   0.771E-02    0.528E-02
DAV:   4    -0.140826862202E+03    0.58717E-04   -0.35754E-04  3152   0.973E-02    0.217E-02
DAV:   5    -0.140826861908E+03    0.29400E-06   -0.86370E-05  2904   0.425E-02    0.185E-02
DAV:   6    -0.140826857743E+03    0.41648E-05   -0.76171E-05  2776   0.455E-02
  11 F= -.14082686E+03 E0= -.14082483E+03  d E =-.154796E-02
       N       E                     dE             d eps       ncg     rms          rms(c)
DAV:   1    -0.140819190782E+03    0.76711E-02   -0.38859E+00  2688   0.860E+00    0.287E-01
DAV:   2    -0.140827433021E+03   -0.82422E-02   -0.91007E-02  2928   0.119E+00    0.153E-01
DAV:   3    -0.140827006282E+03    0.42674E-03   -0.10579E-03  3064   0.154E-01    0.106E-01
DAV:   4    -0.140826762121E+03    0.24416E-03   -0.13840E-03  3192   0.188E-01    0.434E-02
DAV:   5    -0.140826755631E+03    0.64901E-05   -0.32442E-04  2976   0.858E-02    0.355E-02
DAV:   6    -0.140826736985E+03    0.18646E-04   -0.27471E-04  2992   0.904E-02    0.181E-02
DAV:   7    -0.140826732505E+03    0.44804E-05   -0.63784E-05  2720   0.405E-02
  12 F= -.14082673E+03 E0= -.14082493E+03  d E =-.142273E-02
       N       E                     dE             d eps       ncg     rms          rms(c)
DAV:   1    -0.140825020506E+03    0.17165E-02   -0.11009E+00  2688   0.457E+00    0.152E-01
DAV:   2    -0.140827331582E+03   -0.23111E-02   -0.25914E-02  2928   0.635E-01    0.819E-02
DAV:   3    -0.140827211213E+03    0.12037E-03   -0.29332E-04  3120   0.848E-02    0.578E-02
DAV:   4    -0.140827146208E+03    0.65005E-04   -0.52225E-04  3152   0.122E-01    0.263E-02
DAV:   5    -0.140827145384E+03    0.82390E-06   -0.11965E-04  2912   0.474E-02    0.243E-02
DAV:   6    -0.140827138676E+03    0.67079E-05   -0.97605E-05  2872   0.450E-02
  13 F= -.14082714E+03 E0= -.14082522E+03  d E =-.182890E-02
       N       E                     dE             d eps       ncg     rms          rms(c)
DAV:   1    -0.140827254249E+03   -0.10886E-03   -0.83646E-01  2720   0.392E+00    0.136E-01
DAV:   2    -0.140829044022E+03   -0.17898E-02   -0.20845E-02  2928   0.551E-01    0.764E-02
DAV:   3    -0.140828879925E+03    0.16410E-03   -0.22567E-04  3240   0.827E-02    0.523E-02
DAV:   4    -0.140828730129E+03    0.14980E-03   -0.37893E-04  3032   0.120E-01    0.162E-02
DAV:   5    -0.140828720357E+03    0.97722E-05   -0.16882E-04  2968   0.555E-02    0.151E-02
DAV:   6    -0.140828698150E+03    0.22207E-04   -0.52551E-05  2896   0.368E-02    0.103E-02
DAV:   7    -0.140828669848E+03    0.28303E-04   -0.13649E-05  1888   0.385E-02    0.164E-02
DAV:   8    -0.140828641305E+03    0.28543E-04   -0.26232E-05  2368   0.448E-02    0.117E-02
DAV:   9    -0.140828614626E+03    0.26679E-04   -0.42100E-05  2824   0.591E-02    0.524E-03
DAV:  10    -0.140828590411E+03    0.24215E-04   -0.27924E-05  2560   0.761E-02    0.736E-03
DAV:  11    -0.140828574466E+03    0.15944E-04   -0.37208E-05  2672   0.751E-02    0.588E-03
DAV:  12    -0.140828569466E+03    0.50003E-05   -0.39378E-05  2504   0.504E-02
  14 F= -.14082857E+03 E0= -.14082665E+03  d E =-.143079E-02
       N       E                     dE             d eps       ncg     rms          rms(c)
DAV:   1    -0.140828118927E+03    0.45554E-03   -0.27779E-01  2736   0.225E+00    0.805E-02
DAV:   2    -0.140828724923E+03   -0.60600E-03   -0.70202E-03  2904   0.319E-01    0.445E-02
DAV:   3    -0.140828672194E+03    0.52729E-04   -0.82282E-05  3216   0.486E-02    0.302E-02
DAV:   4    -0.140828628021E+03    0.44173E-04   -0.11773E-04  2984   0.623E-02    0.100E-02
DAV:   5    -0.140828623263E+03    0.47572E-05   -0.44957E-05  2688   0.297E-02    0.800E-03
DAV:   6    -0.140828612677E+03    0.10586E-04   -0.36051E-05  2608   0.349E-02    0.113E-02
DAV:   7    -0.140828607496E+03    0.51813E-05   -0.78267E-06  1688   0.169E-02
  15 F= -.14082861E+03 E0= -.14082670E+03  d E =-.146882E-02
       N       E                     dE             d eps       ncg     rms          rms(c)
DAV:   1    -0.140828574339E+03    0.38338E-04   -0.36029E-02  2728   0.809E-01    0.310E-02
DAV:   2    -0.140828654084E+03   -0.79745E-04   -0.96062E-04  2936   0.121E-01    0.164E-02
DAV:   3    -0.140828647722E+03    0.63620E-05   -0.15605E-05  1792   0.222E-02    0.113E-02
DAV:   4    -0.140828642136E+03    0.55857E-05   -0.18274E-05  2088   0.265E-02    0.447E-03
DAV:   5    -0.140828641319E+03    0.81688E-06   -0.78235E-06  1608   0.155E-02    0.438E-03
DAV:   6    -0.140828640689E+03    0.63086E-06   -0.28755E-06  1576   0.897E-03
  16 F= -.14082864E+03 E0= -.14082673E+03  d E =-.150201E-02
       N       E                     dE             d eps       ncg     rms          rms(c)
DAV:   1    -0.140829170994E+03   -0.52967E-03   -0.80200E-02  2688   0.125E+00    0.420E-02
DAV:   2    -0.140829341014E+03   -0.17002E-03   -0.20324E-03  3016   0.187E-01    0.264E-02
DAV:   3    -0.140829331076E+03    0.99374E-05   -0.45809E-05  2752   0.309E-02    0.205E-02
DAV:   4    -0.140829323468E+03    0.76086E-05   -0.43173E-05  2528   0.302E-02    0.850E-03
DAV:   5    -0.140829322074E+03    0.13944E-05   -0.89415E-06  1528   0.151E-02    0.737E-03
DAV:   6    -0.140829320706E+03    0.13677E-05   -0.48327E-06  1704   0.139E-02
  17 F= -.14082932E+03 E0= -.14082744E+03  d E =-.680017E-03
       N       E                     dE             d eps       ncg     rms          rms(c)
DAV:   1    -0.140829264736E+03    0.57338E-04   -0.32222E-01  2688   0.251E+00    0.859E-02
DAV:   2    -0.140829962427E+03   -0.69769E-03   -0.83375E-03  3016   0.378E-01    0.543E-02
DAV:   3    -0.140829919550E+03    0.42877E-04   -0.18909E-04  3008   0.639E-02    0.418E-02
DAV:   4    -0.140829888921E+03    0.30628E-04   -0.20677E-04  2816   0.633E-02    0.174E-02
DAV:   5    -0.140829884012E+03    0.49094E-05   -0.29528E-05  2336   0.292E-02    0.160E-02
DAV:   6    -0.140829878249E+03    0.57626E-05   -0.30020E-05  2224   0.352E-02
  18 F= -.14082988E+03 E0= -.14082805E+03  d E =-.123756E-02
       N       E                     dE             d eps       ncg     rms          rms(c)
DAV:   1    -0.140830468574E+03   -0.58456E-03   -0.15246E-01  2736   0.164E+00    0.482E-02
DAV:   2    -0.140830746690E+03   -0.27812E-03   -0.31152E-03  2992   0.216E-01    0.276E-02
DAV:   3    -0.140830728107E+03    0.18584E-04   -0.41430E-05  2632   0.344E-02    0.187E-02
DAV:   4    -0.140830713308E+03    0.14798E-04   -0.83446E-05  2952   0.537E-02    0.925E-03
DAV:   5    -0.140830713899E+03   -0.59088E-06   -0.26691E-05  2392   0.220E-02    0.102E-02
DAV:   6    -0.140830713953E+03   -0.53693E-07   -0.15825E-06  1536   0.464E-03
  19 F= -.14083071E+03 E0= -.14082889E+03  d E =-.835704E-03
       N       E                     dE             d eps       ncg     rms          rms(c)
DAV:   1    -0.140829619042E+03    0.10949E-02   -0.13704E+00  2720   0.493E+00    0.143E-01
DAV:   2    -0.140832076106E+03   -0.24571E-02   -0.28115E-02  3008   0.650E-01    0.829E-02
DAV:   3    -0.140831895565E+03    0.18054E-03   -0.38618E-04  3264   0.103E-01    0.575E-02
DAV:   4    -0.140831721380E+03    0.17419E-03   -0.85705E-04  3296   0.180E-01    0.319E-02
DAV:   5    -0.140831721076E+03    0.30368E-06   -0.29878E-04  2968   0.724E-02    0.368E-02
DAV:   6    -0.140831714147E+03    0.69286E-05   -0.18841E-05  2016   0.175E-02
  20 F= -.14083171E+03 E0= -.14082992E+03  d E =-.183590E-02
       N       E                     dE             d eps       ncg     rms          rms(c)
DAV:   1    -0.140831953349E+03   -0.23227E-03   -0.11535E-01  2720   0.152E+00    0.578E-02
DAV:   2    -0.140832208437E+03   -0.25509E-03   -0.32630E-03  3000   0.240E-01    0.291E-02
DAV:   3    -0.140832185390E+03    0.23047E-04   -0.78175E-05  2944   0.410E-02    0.207E-02
DAV:   4    -0.140832156008E+03    0.29382E-04   -0.79848E-05  2984   0.442E-02    0.129E-02
DAV:   5    -0.140832141017E+03    0.14992E-04   -0.12617E-05  1776   0.315E-02    0.135E-02
DAV:   6    -0.140832127033E+03    0.13983E-04   -0.17190E-05  2024   0.323E-02    0.852E-03
DAV:   7    -0.140832101300E+03    0.25733E-04   -0.11402E-05  1856   0.527E-02    0.487E-03
DAV:   8    -0.140832059519E+03    0.41780E-04   -0.52851E-05  3088   0.107E-01    0.908E-03
DAV:   9    -0.140832062770E+03   -0.32500E-05   -0.77383E-05  2656   0.310E-02
  21 F= -.14083206E+03 E0= -.14083027E+03  d E =-.348622E-03
       N       E                     dE             d eps       ncg     rms          rms(c)
DAV:   1    -0.140830566886E+03    0.14926E-02   -0.10267E+00  2704   0.453E+00    0.136E-01
DAV:   2    -0.140832824772E+03   -0.22579E-02   -0.24670E-02  2984   0.641E-01    0.802E-02
DAV:   3    -0.140832702766E+03    0.12201E-03   -0.31405E-04  3232   0.792E-02    0.540E-02
DAV:   4    -0.140832620080E+03    0.82686E-04   -0.43438E-04  2960   0.962E-02    0.223E-02
DAV:   5    -0.140832617984E+03    0.20963E-05   -0.82670E-05  2824   0.442E-02    0.167E-02
DAV:   6    -0.140832614421E+03    0.35626E-05   -0.53540E-05  2632   0.407E-02
  22 F= -.14083261E+03 E0= -.14083079E+03  d E =-.900274E-03
       N       E                     dE             d eps       ncg     rms          rms(c)
DAV:   1    -0.140832664650E+03   -0.46666E-04   -0.30772E-01  2768   0.245E+00    0.716E-02
DAV:   2    -0.140833318940E+03   -0.65429E-03   -0.69425E-03  2912   0.339E-01    0.388E-02
DAV:   3    -0.140833286506E+03    0.32434E-04   -0.71228E-05  2952   0.380E-02    0.263E-02
DAV:   4    -0.140833262312E+03    0.24194E-04   -0.10516E-04  2888   0.593E-02    0.803E-03
DAV:   5    -0.140833264351E+03   -0.20391E-05   -0.33025E-05  2296   0.238E-02    0.888E-03
DAV:   6    -0.140833262674E+03    0.16774E-05   -0.93844E-06  1616   0.136E-02
  23 F= -.14083326E+03 E0= -.14083144E+03  d E =-.648253E-03
       N       E                     dE             d eps       ncg     rms          rms(c)
DAV:   1    -0.140829121270E+03    0.41431E-02   -0.27653E+00  2752   0.735E+00    0.207E-01
DAV:   2    -0.140834955625E+03   -0.58344E-02   -0.62034E-02  2920   0.101E+00    0.120E-01
DAV:   3    -0.140834627794E+03    0.32783E-03   -0.59668E-04  3216   0.118E-01    0.816E-02
DAV:   4    -0.140834308455E+03    0.31934E-03   -0.87357E-04  3104   0.206E-01    0.206E-02
DAV:   5    -0.140834318292E+03   -0.98368E-05   -0.45675E-04  2896   0.890E-02    0.268E-02
DAV:   6    -0.140834297081E+03    0.21211E-04   -0.22628E-05  2080   0.200E-02    0.172E-02
DAV:   7    -0.140834222924E+03    0.74157E-04   -0.22432E-04  2968   0.777E-02    0.316E-02
DAV:   8    -0.140834206200E+03    0.16724E-04   -0.25089E-05  2176   0.268E-02    0.283E-02
DAV:   9    -0.140834151467E+03    0.54733E-04   -0.57424E-05  3008   0.738E-02    0.136E-02
DAV:  10    -0.140834080581E+03    0.70886E-04   -0.27432E-04  4416   0.183E-01    0.299E-02
DAV:  11    -0.140833991398E+03    0.89183E-04   -0.11036E-04  3392   0.143E-01    0.175E-02
DAV:  12    -0.140833943501E+03    0.47897E-04   -0.39062E-04  3512   0.217E-01    0.319E-02
DAV:  13    -0.140833943681E+03   -0.18018E-06   -0.30945E-04  2792   0.894E-02    0.152E-02
DAV:  14    -0.140833945862E+03   -0.21808E-05   -0.83873E-05  2752   0.422E-02
  24 F= -.14083395E+03 E0= -.14083211E+03  d E =-.133144E-02
       N       E                     dE             d eps       ncg     rms          rms(c)
DAV:   1    -0.140834222768E+03   -0.27909E-03   -0.28368E-01  2824   0.228E+00    0.639E-02
DAV:   2    -0.140834773564E+03   -0.55080E-03   -0.60855E-03  3016   0.304E-01    0.427E-02
DAV:   3    -0.140834737570E+03    0.35994E-04   -0.73042E-05  3064   0.418E-02    0.300E-02
DAV:   4    -0.140834705900E+03    0.31670E-04   -0.14634E-04  3232   0.778E-02    0.108E-02
DAV:   5    -0.140834709355E+03   -0.34554E-05   -0.59127E-05  2680   0.305E-02    0.133E-02
DAV:   6    -0.140834707324E+03    0.20314E-05   -0.35113E-06  1600   0.824E-03
  25 F= -.14083471E+03 E0= -.14083289E+03  d E =-.761462E-03
       N       E                     dE             d eps       ncg     rms          rms(c)
DAV:   1    -0.140834495554E+03    0.21380E-03   -0.23672E-01  2816   0.208E+00    0.607E-02
DAV:   2    -0.140834960532E+03   -0.46498E-03   -0.51229E-03  3024   0.279E-01    0.393E-02
DAV:   3    -0.140834929190E+03    0.31341E-04   -0.59853E-05  2816   0.401E-02    0.273E-02
DAV:   4    -0.140834901790E+03    0.27400E-04   -0.13535E-04  3288   0.780E-02    0.100E-02
DAV:   5    -0.140834905071E+03   -0.32804E-05   -0.56935E-05  2680   0.301E-02    0.131E-02
DAV:   6    -0.140834903935E+03    0.11361E-05   -0.19662E-06  1560   0.598E-03
  26 F= -.14083490E+03 E0= -.14083310E+03  d E =-.958073E-03
       N       E                     dE             d eps       ncg     rms          rms(c)
DAV:   1    -0.140835259954E+03   -0.35488E-03   -0.19190E-02  2728   0.611E-01    0.246E-02
DAV:   2    -0.140835296745E+03   -0.36791E-04   -0.52324E-04  2976   0.966E-02    0.140E-02
DAV:   3    -0.140835292396E+03    0.43491E-05   -0.15882E-05  1696   0.218E-02    0.105E-02
DAV:   4    -0.140835287505E+03    0.48911E-05   -0.16434E-05  1936   0.221E-02    0.482E-03
DAV:   5    -0.140835284776E+03    0.27288E-05   -0.48044E-06  1624   0.159E-02    0.486E-03
DAV:   6    -0.140835282383E+03    0.23932E-05   -0.34142E-06  1584   0.140E-02
  27 F= -.14083528E+03 E0= -.14083348E+03  d E =-.378448E-03
       N       E                     dE             d eps       ncg     rms          rms(c)
DAV:   1    -0.140835557427E+03   -0.27265E-03   -0.17265E-01  2688   0.183E+00    0.664E-02
DAV:   2    -0.140835883366E+03   -0.32594E-03   -0.45499E-03  2952   0.284E-01    0.415E-02
DAV:   3    -0.140835837539E+03    0.45827E-04   -0.15080E-04  3096   0.667E-02    0.314E-02
DAV:   4    -0.140835781055E+03    0.56484E-04   -0.97047E-05  2792   0.586E-02    0.149E-02
DAV:   5    -0.140835733415E+03    0.47641E-04   -0.29868E-05  2376   0.629E-02    0.128E-02
DAV:   6    -0.140835673791E+03    0.59624E-04   -0.38325E-05  2696   0.848E-02    0.715E-03
DAV:   7    -0.140835602602E+03    0.71189E-04   -0.34342E-05  2520   0.102E-01    0.700E-03
DAV:   8    -0.140835521209E+03    0.81393E-04   -0.63570E-05  3072   0.136E-01    0.602E-03
DAV:   9    -0.140835440169E+03    0.81040E-04   -0.13659E-04  3592   0.206E-01    0.793E-03
DAV:  10    -0.140835425954E+03    0.14215E-04   -0.20927E-04  3360   0.171E-01    0.509E-03
DAV:  11    -0.140835447748E+03   -0.21794E-04   -0.23452E-04  2752   0.517E-02    0.151E-02
DAV:  12    -0.140835446620E+03    0.11275E-05   -0.31831E-06  1632   0.125E-02
  28 F= -.14083545E+03 E0= -.14083365E+03  d E =-.542685E-03
       N       E                     dE             d eps       ncg     rms          rms(c)
DAV:   1    -0.140835532259E+03   -0.84512E-04   -0.18105E-02  2752   0.596E-01    0.245E-02
DAV:   2    -0.140835567218E+03   -0.34959E-04   -0.52809E-04  2976   0.101E-01    0.144E-02
DAV:   3    -0.140835563332E+03    0.38859E-05   -0.23838E-05  2040   0.250E-02    0.108E-02
DAV:   4    -0.140835558262E+03    0.50701E-05   -0.11148E-05  1632   0.167E-02    0.484E-03
DAV:   5    -0.140835553811E+03    0.44513E-05   -0.40701E-06  1624   0.205E-02    0.414E-03
DAV:   6    -0.140835549045E+03    0.47654E-05   -0.44658E-06  1688   0.288E-02
  29 F= -.14083555E+03 E0= -.14083375E+03  d E =-.645111E-03
       N       E                     dE             d eps       ncg     rms          rms(c)
DAV:   1    -0.140835547400E+03    0.64108E-05   -0.13475E-01  2688   0.161E+00    0.550E-02
DAV:   2    -0.140835842048E+03   -0.29465E-03   -0.34082E-03  2920   0.226E-01    0.316E-02
DAV:   3    -0.140835817873E+03    0.24175E-04   -0.34830E-05  2824   0.322E-02    0.220E-02
DAV:   4    -0.140835798182E+03    0.19691E-04   -0.70663E-05  2856   0.501E-02    0.764E-03
DAV:   5    -0.140835797212E+03    0.97001E-06   -0.24182E-05  2320   0.221E-02    0.697E-03
DAV:   6    -0.140835793906E+03    0.33063E-05   -0.80121E-06  1672   0.162E-02
  30 F= -.14083579E+03 E0= -.14083399E+03  d E =-.244860E-03
       N       E                     dE             d eps       ncg     rms          rms(c)
DAV:   1    -0.140835725707E+03    0.71505E-04   -0.57627E-02  2688   0.105E+00    0.355E-02
DAV:   2    -0.140835851927E+03   -0.12622E-03   -0.14562E-03  2928   0.147E-01    0.213E-02
DAV:   3    -0.140835839279E+03    0.12648E-04   -0.11787E-05  1912   0.223E-02    0.147E-02
DAV:   4    -0.140835826280E+03    0.12999E-04   -0.43780E-05  2800   0.414E-02    0.561E-03
DAV:   5    -0.140835825683E+03    0.59716E-06   -0.16118E-05  2032   0.184E-02    0.514E-03
DAV:   6    -0.140835823845E+03    0.18376E-05   -0.43737E-06  1632   0.113E-02
  31 F= -.14083582E+03 E0= -.14083401E+03  d E =-.274800E-03
       N       E                     dE             d eps       ncg     rms          rms(c)
DAV:   1    -0.140836035889E+03   -0.21021E-03   -0.84076E-02  2816   0.130E+00    0.412E-02
DAV:   2    -0.140836199931E+03   -0.16404E-03   -0.19371E-03  3008   0.185E-01    0.255E-02
DAV:   3    -0.140836179047E+03    0.20884E-04   -0.30762E-05  2480   0.326E-02    0.176E-02
DAV:   4    -0.140836150103E+03    0.28944E-04   -0.20932E-05  2168   0.446E-02    0.759E-03
DAV:   5    -0.140836135026E+03    0.15077E-04   -0.20724E-05  1968   0.394E-02    0.587E-03
DAV:   6    -0.140836124628E+03    0.10398E-04   -0.21412E-05  2120   0.348E-02    0.498E-03
DAV:   7    -0.140836108491E+03    0.16137E-04   -0.50127E-06  1688   0.398E-02    0.558E-03
DAV:   8    -0.140836090545E+03    0.17946E-04   -0.11124E-05  1944   0.439E-02    0.364E-03
DAV:   9    -0.140836058398E+03    0.32147E-04   -0.26907E-05  2544   0.993E-02    0.390E-03
DAV:  10    -0.140836035727E+03    0.22670E-04   -0.75165E-05  3168   0.146E-01    0.537E-03
DAV:  11    -0.140836044373E+03   -0.86453E-05   -0.11000E-04  2520   0.412E-02    0.859E-03
DAV:  12    -0.140836042855E+03    0.15176E-05   -0.89229E-06  1656   0.173E-02
  32 F= -.14083604E+03 E0= -.14083423E+03  d E =-.219010E-03
       N       E                     dE             d eps       ncg     rms          rms(c)
DAV:   1    -0.140836046201E+03   -0.18286E-05   -0.16586E-03  2952   0.182E-01    0.728E-03
DAV:   2    -0.140836048950E+03   -0.27483E-05   -0.39975E-05  2568   0.278E-02    0.356E-03
DAV:   3    -0.140836048958E+03   -0.80336E-08   -0.28625E-06  1584   0.741E-03    0.229E-03
DAV:   4    -0.140836048838E+03    0.11915E-06   -0.33475E-07  1560   0.313E-03    0.147E-03
DAV:   5    -0.140836048733E+03    0.10570E-06   -0.63620E-07  1488   0.439E-03    0.119E-03
DAV:   6    -0.140836048687E+03    0.45944E-07   -0.22466E-07  1456   0.231E-03
  33 F= -.14083605E+03 E0= -.14083423E+03  d E =-.224842E-03
       N       E                     dE             d eps       ncg     rms          rms(c)
DAV:   1    -0.140836035684E+03    0.13049E-04   -0.66715E-03  2840   0.366E-01    0.118E-02
DAV:   2    -0.140836049242E+03   -0.13558E-04   -0.15514E-04  2984   0.517E-02    0.708E-03
DAV:   3    -0.140836047837E+03    0.14044E-05   -0.19166E-06  1616   0.849E-03    0.489E-03
DAV:   4    -0.140836045965E+03    0.18717E-05   -0.22867E-06  1592   0.136E-02    0.171E-03
DAV:   5    -0.140836045498E+03    0.46785E-06   -0.23310E-06  1560   0.920E-03    0.180E-03
DAV:   6    -0.140836045337E+03    0.16040E-06   -0.91980E-07  1480   0.450E-03
  34 F= -.14083605E+03 E0= -.14083423E+03  d E =-.221492E-03
       N       E                     dE             d eps       ncg     rms          rms(c)
DAV:   1    -0.140836045638E+03   -0.13991E-06   -0.20794E-03  2840   0.204E-01    0.651E-03
DAV:   2    -0.140836049697E+03   -0.40597E-05   -0.48419E-05  2640   0.285E-02    0.404E-03
DAV:   3    -0.140836049254E+03    0.44331E-06   -0.79927E-07  1456   0.435E-03    0.269E-03
DAV:   4    -0.140836048888E+03    0.36607E-06   -0.81902E-07  1416   0.507E-03    0.836E-04
DAV:   5    -0.140836048838E+03    0.50342E-07   -0.41229E-07  1416   0.300E-03    0.924E-04
DAV:   6    -0.140836048805E+03    0.32846E-07   -0.11772E-07  1392   0.176E-03
  35 F= -.14083605E+03 E0= -.14083423E+03  d E =-.224959E-03
       N       E                     dE             d eps       ncg     rms          rms(c)
DAV:   1    -0.140836163812E+03   -0.11497E-03   -0.69323E-03  2696   0.372E-01    0.162E-02
DAV:   2    -0.140836175373E+03   -0.11561E-04   -0.15711E-04  2992   0.521E-02    0.105E-02
DAV:   3    -0.140836173774E+03    0.15982E-05   -0.65499E-06  1656   0.133E-02    0.640E-03
DAV:   4    -0.140836172888E+03    0.88633E-06   -0.24828E-06  1560   0.100E-02    0.311E-03
DAV:   5    -0.140836172248E+03    0.64049E-06   -0.11598E-06  1584   0.911E-03    0.129E-03
DAV:   6    -0.140836171863E+03    0.38409E-06   -0.93288E-07  1536   0.721E-03
  36 F= -.14083617E+03 E0= -.14083435E+03  d E =-.123059E-03
       N       E                     dE             d eps       ncg     rms          rms(c)
DAV:   1    -0.140836204796E+03   -0.32548E-04   -0.85820E-03  2704   0.414E-01    0.179E-02
DAV:   2    -0.140836217974E+03   -0.13179E-04   -0.19512E-04  3024   0.584E-02    0.115E-02
DAV:   3    -0.140836215066E+03    0.29082E-05   -0.83451E-06  1696   0.165E-02    0.716E-03
DAV:   4    -0.140836212381E+03    0.26854E-05   -0.28804E-06  1584   0.144E-02    0.362E-03
DAV:   5    -0.140836209365E+03    0.30153E-05   -0.19172E-06  1664   0.176E-02    0.179E-03
DAV:   6    -0.140836207136E+03    0.22292E-05   -0.26276E-06  1616   0.158E-02
  37 F= -.14083621E+03 E0= -.14083438E+03  d E =-.158332E-03
       N       E                     dE             d eps       ncg     rms          rms(c)
DAV:   1    -0.140836277554E+03   -0.68188E-04   -0.93758E-03  2704   0.414E-01    0.150E-02
DAV:   2    -0.140836296241E+03   -0.18688E-04   -0.24207E-04  2936   0.611E-02    0.828E-03
DAV:   3    -0.140836293361E+03    0.28800E-05   -0.44100E-06  1632   0.140E-02    0.585E-03
DAV:   4    -0.140836289381E+03    0.39803E-05   -0.31933E-06  1632   0.187E-02    0.251E-03
DAV:   5    -0.140836287541E+03    0.18399E-05   -0.39605E-06  1584   0.155E-02    0.225E-03
DAV:   6    -0.140836286630E+03    0.91075E-06   -0.26625E-06  1560   0.101E-02
  38 F= -.14083629E+03 E0= -.14083445E+03  d E =-.794942E-04
       N       E                     dE             d eps       ncg     rms          rms(c)
DAV:   1    -0.140836283337E+03    0.42037E-05   -0.84230E-02  2688   0.124E+00    0.446E-02
DAV:   2    -0.140836453972E+03   -0.17063E-03   -0.21113E-03  2928   0.178E-01    0.246E-02
DAV:   3    -0.140836435311E+03    0.18661E-04   -0.39802E-05  2872   0.394E-02    0.174E-02
DAV:   4    -0.140836417240E+03    0.18070E-04   -0.22302E-05  2240   0.413E-02    0.794E-03
DAV:   5    -0.140836407928E+03    0.93120E-05   -0.19997E-05  1960   0.402E-02    0.543E-03
DAV:   6    -0.140836404383E+03    0.35456E-05   -0.17242E-05  1736   0.252E-02
  39 F= -.14083640E+03 E0= -.14083455E+03  d E =-.197246E-03
       N       E                     dE             d eps       ncg     rms          rms(c)
DAV:   1    -0.140836389792E+03    0.18136E-04   -0.99809E-03  2704   0.428E-01    0.159E-02
DAV:   2    -0.140836404540E+03   -0.14748E-04   -0.25033E-04  2936   0.639E-02    0.896E-03
DAV:   3    -0.140836398660E+03    0.58797E-05   -0.55460E-06  1648   0.208E-02    0.662E-03
DAV:   4    -0.140836387301E+03    0.11360E-04   -0.58285E-06  1664   0.371E-02    0.315E-03
DAV:   5    -0.140836381961E+03    0.53396E-05   -0.12834E-05  1936   0.268E-02    0.376E-03
DAV:   6    -0.140836379383E+03    0.25778E-05   -0.60912E-06  1608   0.154E-02
  40 F= -.14083638E+03 E0= -.14083452E+03  d E =-.172247E-03
       N       E                     dE             d eps       ncg     rms          rms(c)
DAV:   1    -0.140836428774E+03   -0.46813E-04   -0.15247E-02  2816   0.549E-01    0.195E-02
DAV:   2    -0.140836466892E+03   -0.38118E-04   -0.45116E-04  2976   0.868E-02    0.129E-02
DAV:   3    -0.140836463244E+03    0.36485E-05   -0.81422E-06  1632   0.143E-02    0.824E-03
DAV:   4    -0.140836460526E+03    0.27181E-05   -0.78110E-06  1608   0.128E-02    0.297E-03
DAV:   5    -0.140836460078E+03    0.44817E-06   -0.23064E-06  1608   0.808E-03    0.226E-03
DAV:   6    -0.140836459140E+03    0.93749E-06   -0.85625E-07  1632   0.962E-03
  41 F= -.14083646E+03 E0= -.14083460E+03  d E =-.797569E-04
       N       E                     dE             d eps       ncg     rms          rms(c)
DAV:   1    -0.140836326519E+03    0.13356E-03   -0.13638E-01  2712   0.164E+00    0.556E-02
DAV:   2    -0.140836638928E+03   -0.31241E-03   -0.35503E-03  2968   0.240E-01    0.307E-02
DAV:   3    -0.140836619308E+03    0.19621E-04   -0.49544E-05  2968   0.342E-02    0.221E-02
DAV:   4    -0.140836605267E+03    0.14040E-04   -0.59485E-05  2744   0.386E-02    0.888E-03
DAV:   5    -0.140836603936E+03    0.13313E-05   -0.12870E-05  1752   0.197E-02    0.729E-03
DAV:   6    -0.140836602357E+03    0.15788E-05   -0.11692E-05  1688   0.220E-02
  42 F= -.14083660E+03 E0= -.14083472E+03  d E =-.222974E-03
       N       E                     dE             d eps       ncg     rms          rms(c)
DAV:   1    -0.140836700114E+03   -0.96178E-04   -0.27468E-02  2856   0.712E-01    0.220E-02
DAV:   2    -0.140836746218E+03   -0.46104E-04   -0.58451E-04  3000   0.991E-02    0.137E-02
DAV:   3    -0.140836738830E+03    0.73881E-05   -0.93347E-06  1704   0.203E-02    0.967E-03
DAV:   4    -0.140836727346E+03    0.11484E-04   -0.97442E-06  1808   0.322E-02    0.377E-03
DAV:   5    -0.140836724107E+03    0.32392E-05   -0.13030E-05  1792   0.234E-02    0.355E-03
DAV:   6    -0.140836722910E+03    0.11966E-05   -0.64913E-06  1584   0.137E-02
  43 F= -.14083672E+03 E0= -.14083483E+03  d E =-.120553E-03
       N       E                     dE             d eps       ncg     rms          rms(c)
DAV:   1    -0.140836716415E+03    0.76920E-05   -0.20963E-02  2856   0.624E-01    0.193E-02
DAV:   2    -0.140836749200E+03   -0.32785E-04   -0.45400E-04  3016   0.901E-02    0.122E-02
DAV:   3    -0.140836742089E+03    0.71107E-05   -0.11171E-05  1680   0.214E-02    0.895E-03
DAV:   4    -0.140836730212E+03    0.11877E-04   -0.57152E-06  1696   0.273E-02    0.447E-03
DAV:   5    -0.140836721866E+03    0.83459E-05   -0.95213E-06  1824   0.299E-02    0.376E-03
DAV:   6    -0.140836719113E+03    0.27536E-05   -0.11342E-05  1640   0.205E-02
  44 F= -.14083672E+03 E0= -.14083481E+03  d E =-.116755E-03
       N       E                     dE             d eps       ncg     rms          rms(c)
DAV:   1    -0.140836710887E+03    0.10979E-04   -0.75246E-04  2896   0.125E-01    0.638E-03
DAV:   2    -0.140836712942E+03   -0.20547E-05   -0.46771E-05  2680   0.276E-02    0.732E-03
DAV:   3    -0.140836711853E+03    0.10886E-05   -0.23482E-06  1608   0.680E-03    0.476E-03
DAV:   4    -0.140836709518E+03    0.23353E-05   -0.27879E-06  1656   0.850E-03    0.186E-03
DAV:   5    -0.140836707476E+03    0.20421E-05   -0.11726E-06  1608   0.985E-03    0.257E-03
DAV:   6    -0.140836702655E+03    0.48215E-05   -0.21813E-06  1720   0.299E-02
  45 F= -.14083670E+03 E0= -.14083480E+03  d E =-.100297E-03
       N       E                     dE             d eps       ncg     rms          rms(c)
DAV:   1    -0.140836699896E+03    0.75799E-05   -0.35445E-03  3024   0.256E-01    0.931E-03
DAV:   2    -0.140836708546E+03   -0.86494E-05   -0.10397E-04  2888   0.396E-02    0.639E-03
DAV:   3    -0.140836707686E+03    0.85918E-06   -0.23790E-06  1608   0.891E-03    0.372E-03
DAV:   4    -0.140836707153E+03    0.53303E-06   -0.20935E-06  1536   0.885E-03    0.139E-03
DAV:   5    -0.140836707051E+03    0.10220E-06   -0.10770E-06  1488   0.470E-03    0.122E-03
DAV:   6    -0.140836706967E+03    0.84520E-07   -0.23150E-07  1456   0.242E-03
  46 F= -.14083671E+03 E0= -.14083481E+03  d E =-.104609E-03
