 vasp.5.3.5 31Mar14 (build Apr 08 2024 10:12:10) complex                        
  
 executed on             LinuxIFC date 2024.07.29  19:55:24
 running on    8 total cores
 distrk:  each k-point on    8 cores,    1 groups
 distr:  one band on NCORES_PER_BAND=   4 cores,    2 groups


--------------------------------------------------------------------------------------------------------


 INCAR:
 POTCAR:    PAW_PBE O 08Apr2002                   
 POTCAR:    PAW_PBE Mg 13Apr2007                  
 POTCAR:    PAW_PBE Al 04Jan2001                  
 POTCAR:    PAW_PBE O 08Apr2002                   
   VRHFIN =O: s2p4                                                              
   LEXCH  = PE                                                                  
   EATOM  =   432.3788 eV,   31.7789 Ry                                         
                                                                                
   TITEL  = PAW_PBE O 08Apr2002                                                 
   LULTRA =        F    use ultrasoft PP ?                                      
   IUNSCR =        1    unscreen: 0-lin 1-nonlin 2-no                           
   RPACOR =    1.200    partial core radius                                     
   POMASS =   16.000; ZVAL   =    6.000    mass and valenz                      
   RCORE  =    1.520    outmost cutoff radius                                   
   RWIGS  =    1.550; RWIGS  =    0.820    wigner-seitz radius (au A)           
   ENMAX  =  400.000; ENMIN  =  300.000 eV                                      
   ICORE  =        2    local potential                                         
   LCOR   =        T    correct aug charges                                     
   LPAW   =        T    paw PP                                                  
   EAUG   =  605.392                                                            
   DEXC   =    0.000                                                            
   RMAX   =    1.553    core radius for proj-oper                               
   RAUG   =    1.300    factor for augmentation sphere                          
   RDEP   =    1.550    radius for radial grids                                 
   RDEPT  =    1.329    core radius for aug-charge                              
                                                                                
   Atomic configuration                                                         
    4 entries                                                                   
     n  l   j            E        occ.                                          
     1  0  0.50      -514.6923   2.0000                                         
     2  0  0.50       -23.9615   2.0000                                         
     2  1  0.50        -9.0305   4.0000                                         
     3  2  1.50        -9.5241   0.0000                                         
   Description                                                                  
     l       E           TYP  RCUT    TYP  RCUT                                 
     0    -23.9615318     23  1.200                                             
     0     -9.5240782     23  1.200                                             
     1     -9.0304911     23  1.520                                             
     1      8.1634956     23  1.520                                             
     2     -9.5240782      7  1.500                                             
  local pseudopotential read in
  partial core-charges read in
  partial kinetic energy density read in
  kinetic energy density of atom read in
  atomic valenz-charges read in
  non local Contribution for L=           0  read in
    real space projection operators read in
  non local Contribution for L=           0  read in
    real space projection operators read in
  non local Contribution for L=           1  read in
    real space projection operators read in
  non local Contribution for L=           1  read in
    real space projection operators read in
    PAW grid and wavefunctions read in
 
   number of l-projection  operators is LMAX  =           4
   number of lm-projection operators is LMMAX =           8
 
 POTCAR:    PAW_PBE Mg 13Apr2007                  
   VRHFIN =Mg: s2p0                                                             
   LEXCH  = PE                                                                  
   EATOM  =    23.0369 eV,    1.6932 Ry                                         
                                                                                
   TITEL  = PAW_PBE Mg 13Apr2007                                                
   LULTRA =        F    use ultrasoft PP ?                                      
   IUNSCR =        1    unscreen: 0-lin 1-nonlin 2-no                           
   RPACOR =    1.500    partial core radius                                     
   POMASS =   24.305; ZVAL   =    2.000    mass and valenz                      
   RCORE  =    2.000    outmost cutoff radius                                   
   RWIGS  =    2.880; RWIGS  =    1.524    wigner-seitz radius (au A)           
   ENMAX  =  200.000; ENMIN  =  100.000 eV                                      
   RCLOC  =    1.506    cutoff for local pot                                    
   LCOR   =        T    correct aug charges                                     
   LPAW   =        T    paw PP                                                  
   EAUG   =  454.734                                                            
   DEXC   =    0.000                                                            
   RMAX   =    2.045    core radius for proj-oper                               
   RAUG   =    1.300    factor for augmentation sphere                          
   RDEP   =    2.025    radius for radial grids                                 
   RDEPT  =    1.942    core radius for aug-charge                              
                                                                                
   Atomic configuration                                                         
    6 entries                                                                   
     n  l   j            E        occ.                                          
     1  0  0.50     -1259.6230   2.0000                                         
     2  0  0.50       -79.8442   2.0000                                         
     2  1  1.50       -46.6121   6.0000                                         
     3  0  0.50        -4.7055   2.0000                                         
     3  1  0.50        -1.3660   0.0000                                         
     3  2  1.50        -1.3606   0.0000                                         
   Description                                                                  
     l       E           TYP  RCUT    TYP  RCUT                                 
     0     -4.7054661     23  2.000                                             
     0     27.2116520     23  2.000                                             
     1      1.3605826     23  2.000                                             
     1     27.2116520     23  2.000                                             
     2     -1.3605826     23  2.000                                             
  local pseudopotential read in
  partial core-charges read in
  partial kinetic energy density read in
  atomic valenz-charges read in
  non local Contribution for L=           0  read in
    real space projection operators read in
  non local Contribution for L=           0  read in
    real space projection operators read in
  non local Contribution for L=           1  read in
    real space projection operators read in
  non local Contribution for L=           1  read in
    real space projection operators read in
  non local Contribution for L=           2  read in
    real space projection operators read in
    PAW grid and wavefunctions read in
 
   number of l-projection  operators is LMAX  =           5
   number of lm-projection operators is LMMAX =          13
 
 POTCAR:    PAW_PBE Al 04Jan2001                  
   VRHFIN =Al: s2p1                                                             
   LEXCH  = PE                                                                  
   EATOM  =    53.5387 eV,    3.9350 Ry                                         
                                                                                
   TITEL  = PAW_PBE Al 04Jan2001                                                
   LULTRA =        F    use ultrasoft PP ?                                      
   IUNSCR =        1    unscreen: 0-lin 1-nonlin 2-no                           
   RPACOR =    1.500    partial core radius                                     
   POMASS =   26.981; ZVAL   =    3.000    mass and valenz                      
   RCORE  =    1.900    outmost cutoff radius                                   
   RWIGS  =    2.650; RWIGS  =    1.402    wigner-seitz radius (au A)           
   ENMAX  =  240.300; ENMIN  =  180.225 eV                                      
   ICORE  =        2    local potential                                         
   LCOR   =        T    correct aug charges                                     
   LPAW   =        T    paw PP                                                  
   EAUG   =  291.052                                                            
   DEXC   =    0.000                                                            
   RMAX   =    1.939    core radius for proj-oper                               
   RAUG   =    1.300    factor for augmentation sphere                          
   RDEP   =    1.966    radius for radial grids                                 
   RDEPT  =    1.856    core radius for aug-charge                              
                                                                                
   Atomic configuration                                                         
    6 entries                                                                   
     n  l   j            E        occ.                                          
     1  0  0.50     -1511.1048   2.0000                                         
     2  0  0.50      -108.1629   2.0000                                         
     2  1  1.50       -69.6402   6.0000                                         
     3  0  0.50        -7.7528   2.0000                                         
     3  1  1.50        -2.7121   1.0000                                         
     3  2  2.50        -2.7212   0.0000                                         
   Description                                                                  
     l       E           TYP  RCUT    TYP  RCUT                                 
     0     -7.7528455     23  1.900                                             
     0     -3.3096929     23  1.900                                             
     1     -2.7120682     23  1.900                                             
     1     13.6058260     23  1.900                                             
     2     -2.7211652      7  1.900                                             
  local pseudopotential read in
  partial core-charges read in
  partial kinetic energy density read in
  atomic valenz-charges read in
  non local Contribution for L=           0  read in
    real space projection operators read in
  non local Contribution for L=           0  read in
    real space projection operators read in
  non local Contribution for L=           1  read in
    real space projection operators read in
  non local Contribution for L=           1  read in
    real space projection operators read in
    PAW grid and wavefunctions read in
 
   number of l-projection  operators is LMAX  =           4
   number of lm-projection operators is LMMAX =           8
 

 ----------------------------------------------------------------------------- 
|                                                                             |
|  ADVICE TO THIS USER RUNNING 'VASP/VAMP'   (HEAR YOUR MASTER'S VOICE ...):  |
|                                                                             |
|      You have a (more or less) 'large supercell' and for larger cells       |
|      it might be more efficient to use real space projection opertators     |
|      So try LREAL= Auto  in the INCAR   file.                               |
|      Mind: At the moment your POTCAR file does not contain real space       |
|       projectors, and has to be modified,  BUT if you                       |
|      want to do an extremely  accurate calculation you might also keep the  |
|      reciprocal projection scheme          (i.e. LREAL=.FALSE.)             |
|                                                                             |
 ----------------------------------------------------------------------------- 

  PAW_PBE O 08Apr2002                   :
 energy of atom  1       EATOM= -432.3788
 kinetic energy error for atom=    0.0208 (will be added to EATOM!!)
  PAW_PBE Mg 13Apr2007                  :
 energy of atom  2       EATOM=  -23.0369
 kinetic energy error for atom=    0.0000 (will be added to EATOM!!)
  PAW_PBE Al 04Jan2001                  :
 energy of atom  3       EATOM=  -53.5387
 kinetic energy error for atom=    0.0002 (will be added to EATOM!!)
 
 
 POSCAR: Layer                                   
  positions in direct lattice
  velocities in cartesian coordinates
 exchange correlation table for  LEXCH =        8
   RHO(1)=    0.500       N(1)  =     2000
   RHO(2)=  100.500       N(2)  =     4000
 


--------------------------------------------------------------------------------------------------------


 ion  position               nearest neighbor table
   1  0.000  0.000  0.252-  21 1.76  14 2.09  14 2.09  14 2.09
   2  0.333  0.667  0.311-  11 2.15  11 2.15  11 2.15  14 2.15  14 2.15  14 2.15
   3  0.000  0.000  0.434-  17 2.15  17 2.15  17 2.15  15 2.15  15 2.15  15 2.15
   4  0.333  0.667  0.495-  12 2.15  12 2.15  12 2.15  15 2.15  15 2.15  15 2.15
   5  0.000  0.000  0.618-  16 2.15  16 2.15  16 2.15  18 2.15  18 2.15  18 2.15
   6  0.333  0.667  0.679-  16 2.15  16 2.15  16 2.15  13 2.15  13 2.15  13 2.15
   7  0.000  0.000  0.800-  24 1.76  19 2.09  19 2.09  19 2.09
   8  0.667  0.333  0.373-  17 2.15  17 2.15  17 2.15  11 2.15  11 2.15  11 2.15
   9  0.667  0.333  0.557-  12 2.15  12 2.15  12 2.15  18 2.15  18 2.15  18 2.15
  10  0.667  0.333  0.741-  13 2.15  13 2.15  13 2.15  19 2.15  19 2.15  19 2.15
  11  0.000  0.000  0.342-   2 2.15   2 2.15   2 2.15   8 2.15   8 2.15   8 2.15  17 3.09  17 3.09
                            17 3.09  14 3.09  14 3.09  14 3.09
  12  0.000  0.000  0.526-   4 2.15   4 2.15   4 2.15   9 2.15   9 2.15   9 2.15  18 3.08  18 3.08
                            18 3.08  15 3.08  15 3.08  15 3.08
  13  0.000  0.000  0.710-  10 2.15  10 2.15  10 2.15   6 2.15   6 2.15   6 2.15  16 3.09  16 3.09
                            16 3.09  19 3.09  19 3.09  19 3.09
  14  0.667  0.333  0.281-   1 2.09   1 2.09   1 2.09   2 2.15   2 2.15   2 2.15  11 3.09  11 3.09
                            11 3.09  21 3.41  21 3.41  21 3.41
  15  0.667  0.333  0.465-   4 2.15   4 2.15   4 2.15   3 2.15   3 2.15   3 2.15  12 3.08  12 3.08
                            12 3.08  17 3.09  17 3.09  17 3.09
  16  0.667  0.333  0.649-   5 2.15   5 2.15   5 2.15   6 2.15   6 2.15   6 2.15  18 3.09  18 3.09
                            18 3.09  13 3.09  13 3.09  13 3.09
  17  0.333  0.667  0.403-   3 2.15   3 2.15   3 2.15   8 2.15   8 2.15   8 2.15  15 3.09  15 3.09
                            15 3.09  11 3.09  11 3.09  11 3.09
  18  0.333  0.667  0.587-   9 2.15   9 2.15   9 2.15   5 2.15   5 2.15   5 2.15  12 3.08  12 3.08
                            12 3.08  16 3.09  16 3.09  16 3.09
  19  0.333  0.667  0.771-   7 2.09   7 2.09   7 2.09  10 2.15  10 2.15  10 2.15  13 3.09  13 3.09
                            13 3.09  24 3.41  24 3.41  24 3.41
  20  0.000  0.000  0.026-  25 3.08  25 3.08  25 3.08  23 3.08  23 3.08  23 3.08
  21  0.000  0.000  0.210-   1 1.76  22 3.04  22 3.04  22 3.04  14 3.41  14 3.41  14 3.41
  22  0.667  0.333  0.150-  21 3.04  21 3.04  21 3.04  23 3.15  23 3.15  23 3.15
  23  0.333  0.667  0.087-  20 3.08  20 3.08  20 3.08  22 3.15  22 3.15  22 3.15
  24  0.000  0.000  0.842-   7 1.76  26 3.04  26 3.04  26 3.04  19 3.41  19 3.41  19 3.41
  25  0.667  0.333  0.965-  20 3.08  20 3.08  20 3.08  26 3.15  26 3.15  26 3.15
  26  0.333  0.667  0.902-  24 3.04  24 3.04  24 3.04  25 3.15  25 3.15  25 3.15
 
  LATTYP: Found a hexagonal cell.
 ALAT       =     3.0027496481
 C/A-ratio  =    13.8626181533
  
  Lattice vectors:
  
 A1 = (   2.6004576727,  -1.5013744842,   0.0000000000)
 A2 = (   0.0000000000,   3.0027489684,   0.0000000000)
 A3 = (   0.0000000000,  -0.0000000000,  41.6259717818)


Analysis of symmetry for initial positions (statically):
=====================================================================
 Subroutine PRICEL returns:
 Original cell was already a primitive cell.
 

 Routine SETGRP: Setting up the symmetry group for a 
 hexagonal supercell.


 Subroutine GETGRP returns: Found  6 space group operations
 (whereof  6 operations were pure point group operations)
 out of a pool of 24 trial point group operations.


The static configuration has the point symmetry C_3v.


Analysis of symmetry for dynamics (positions and initial velocities):
=====================================================================
 Subroutine PRICEL returns:
 Original cell was already a primitive cell.
 

 Routine SETGRP: Setting up the symmetry group for a 
 hexagonal supercell.


 Subroutine GETGRP returns: Found  6 space group operations
 (whereof  6 operations were pure point group operations)
 out of a pool of 24 trial point group operations.


The dynamic configuration has the point symmetry C_3v.


Analysis of constrained symmetry for selective dynamics:
=====================================================================
 Subroutine PRICEL returns:
 Original cell was already a primitive cell.
 

 Routine SETGRP: Setting up the symmetry group for a 
 hexagonal supercell.


 Subroutine GETGRP returns: Found  6 space group operations
 (whereof  6 operations were pure point group operations)
 out of a pool of 24 trial point group operations.


The constrained configuration has the point symmetry C_3v.
 
 
 KPOINTS: K-Spacing Value to Generate K-Mesh: 0.02

Automatic generation of k-mesh.
Space group operators:
 irot       det(A)        alpha          n_x          n_y          n_z        tau_x        tau_y        tau_z
    1     1.000000     0.000000     1.000000     0.000000     0.000000     0.000000     0.000000     0.000000
    2     1.000000   120.000000    -0.000000    -0.000000    -1.000000     0.000000     0.000000     0.000000
    3     1.000000   120.000000     0.000000    -0.000000     1.000000     0.000000     0.000000     0.000000
    4    -1.000000   180.000000    -0.866025     0.500000     0.000000     0.000000     0.000000     0.000000
    5    -1.000000   180.000000     0.000000     1.000000     0.000000     0.000000     0.000000     0.000000
    6    -1.000000   180.000000    -0.866025    -0.500000     0.000000     0.000000     0.000000     0.000000
 
 Subroutine IBZKPT returns following result:
 ===========================================
 
 Found     21 irreducible k-points:
 
 Following reciprocal coordinates:
            Coordinates               Weight
  0.000000  0.000000  0.000000      1.000000
  0.076923  0.000000  0.000000      6.000000
  0.153846  0.000000  0.000000      6.000000
  0.230769  0.000000  0.000000      6.000000
  0.307692  0.000000  0.000000      6.000000
  0.384615  0.000000  0.000000      6.000000
  0.461538  0.000000  0.000000      6.000000
  0.076923  0.076923 -0.000000      6.000000
  0.153846  0.076923 -0.000000     12.000000
  0.230769  0.076923  0.000000     12.000000
  0.307692  0.076923 -0.000000     12.000000
  0.384615  0.076923  0.000000     12.000000
  0.461538  0.076923  0.000000      6.000000
  0.153846  0.153846 -0.000000      6.000000
  0.230769  0.153846  0.000000     12.000000
  0.307692  0.153846 -0.000000     12.000000
  0.384615  0.153846  0.000000     12.000000
  0.230769  0.230769  0.000000      6.000000
  0.307692  0.230769 -0.000000     12.000000
  0.384615  0.230769 -0.000000      6.000000
  0.307692  0.307692 -0.000000      6.000000
 
 Following cartesian coordinates:
            Coordinates               Weight
  0.000000  0.000000  0.000000      1.000000
  0.029581  0.000000 -0.000000      6.000000
  0.059161  0.000000 -0.000000      6.000000
  0.088742  0.000000 -0.000000      6.000000
  0.118322  0.000000 -0.000000      6.000000
  0.147903  0.000000 -0.000000      6.000000
  0.177484  0.000000 -0.000000      6.000000
  0.044371  0.025618 -0.000000      6.000000
  0.073951  0.025618 -0.000000     12.000000
  0.103532  0.025618 -0.000000     12.000000
  0.133113  0.025618 -0.000000     12.000000
  0.162693  0.025618 -0.000000     12.000000
  0.192274  0.025618 -0.000000      6.000000
  0.088742  0.051235 -0.000000      6.000000
  0.118322  0.051235 -0.000000     12.000000
  0.147903  0.051235 -0.000000     12.000000
  0.177484  0.051235 -0.000000     12.000000
  0.133113  0.076853 -0.000000      6.000000
  0.162693  0.076853 -0.000000     12.000000
  0.192274  0.076853 -0.000000      6.000000
  0.177484  0.102470 -0.000000      6.000000
 


--------------------------------------------------------------------------------------------------------




 Dimension of arrays:
   k-points           NKPTS =     21   k-points in BZ     NKDIM =     21   number of bands    NBANDS=     64
   number of dos      NEDOS =    301   number of ions     NIONS =     26
   non local maximal  LDIM  =      5   non local SUM 2l+1 LMDIM =     13
   total plane-waves  NPLWV = 184320
   max r-space proj   IRMAX =      1   max aug-charges    IRDMAX= 192891
   dimension x,y,z NGX =    24 NGY =   24 NGZ =  320
   dimension x,y,z NGXF=    48 NGYF=   48 NGZF=  640
   support grid    NGXF=    96 NGYF=   96 NGZF= 1280
   ions per type =              10   9   7
 NGX,Y,Z   is equivalent  to a cutoff of  13.29, 13.29, 12.78 a.u.
 NGXF,Y,Z  is equivalent  to a cutoff of  26.57, 26.57, 25.56 a.u.


 I would recommend the setting:
   dimension x,y,z NGX =    22 NGY =   22 NGZ =  310
 SYSTEM =  unknown system                          
 POSCAR =  Layer                                   

 Startparameter for this run:
   NWRITE =      2    write-flag & timer
   PREC   = accura    normal or accurate (medium, high low for compatibility)
   ISTART =      0    job   : 0-new  1-cont  2-samecut
   ICHARG =      2    charge: 1-file 2-atom 10-const
   ISPIN  =      1    spin polarized calculation?
   LNONCOLLINEAR =      F non collinear calculations
   LSORBIT =      F    spin-orbit coupling
   INIWAV =      1    electr: 0-lowe 1-rand  2-diag
   LASPH  =      F    aspherical Exc in radial PAW
   METAGGA=      F    non-selfconsistent MetaGGA calc.

 Electronic Relaxation 1
   ENCUT  =  520.0 eV  38.22 Ry    6.18 a.u.   5.58  5.58 77.40*2*pi/ulx,y,z
   ENINI  =  520.0     initial cutoff
   ENAUG  =  605.4 eV  augmentation charge cutoff
   NELM   =    100;   NELMIN=  6; NELMDL=  0     # of ELM steps 
   EDIFF  = 0.1E-04   stopping-criterion for ELM
   LREAL  =      F    real-space projection
   NLSPLINE    = F    spline interpolate recip. space projectors
   LCOMPAT=      F    compatible to vasp.4.4
   GGA_COMPAT  = T    GGA compatible to vasp.4.4-vasp.4.6
   LMAXPAW     = -100 max onsite density
   LMAXMIX     =    2 max onsite mixed and CHGCAR
   VOSKOWN=      0    Vosko Wilk Nusair interpolation
   ROPT   =    0.00000   0.00000   0.00000
 Ionic relaxation
   EDIFFG = -.2E-01   stopping-criterion for IOM
   NSW    =    500    number of steps for IOM
   NBLOCK =      1;   KBLOCK =    500    inner block; outer block 
   IBRION =      2    ionic relax: 0-MD 1-quasi-New 2-CG
   NFREE  =      1    steps in history (QN), initial steepest desc. (CG)
   ISIF   =      2    stress and relaxation
   IWAVPR =     11    prediction:  0-non 1-charg 2-wave 3-comb
   ISYM   =      2    0-nonsym 1-usesym 2-fastsym
   LCORR  =      T    Harris-Foulkes like correction to forces

   POTIM  = 0.5000    time-step for ionic-motion
   TEIN   =    0.0    initial temperature
   TEBEG  =    0.0;   TEEND  =   0.0 temperature during run
   SMASS  =  -3.00    Nose mass-parameter (am)
   estimated Nose-frequenzy (Omega)   =  0.10E-29 period in steps =****** mass=  -0.206E-27a.u.
   SCALEE = 1.0000    scale energy and forces
   NPACO  =    256;   APACO  = 16.0  distance and # of slots for P.C.
   PSTRESS=    0.0 pullay stress

  Mass of Ions in am
   POMASS =  16.00 24.30 26.98
  Ionic Valenz
   ZVAL   =   6.00  2.00  3.00
  Atomic Wigner-Seitz radii
   RWIGS  =  -1.00 -1.00 -1.00
  virtual crystal weights 
   VCA    =   1.00  1.00  1.00
   NELECT =      99.0000    total number of electrons
   NUPDOWN=      -1.0000    fix difference up-down

 DOS related values:
   EMIN   =  10.00;   EMAX   =-10.00  energy-range for DOS
   EFERMI =   0.00
   ISMEAR =     0;   SIGMA  =   0.05  broadening in eV -4-tet -1-fermi 0-gaus

 Electronic relaxation 2 (details)
   IALGO  =     38    algorithm
   LDIAG  =      T    sub-space diagonalisation (order eigenvalues)
   LSUBROT=      F    optimize rotation matrix (better conditioning)
   TURBO    =      0    0=normal 1=particle mesh
   IRESTART =      0    0=no restart 2=restart with 2 vectors
   NREBOOT  =      0    no. of reboots
   NMIN     =      0    reboot dimension
   EREF     =   0.00    reference energy to select bands
   IMIX   =      4    mixing-type and parameters
     AMIX     =   0.40;   BMIX     =  1.00
     AMIX_MAG =   1.60;   BMIX_MAG =  1.00
     AMIN     =   0.01
     WC   =   100.;   INIMIX=   1;  MIXPRE=   1;  MAXMIX= -45

 Intra band minimization:
   WEIMIN = 0.0010     energy-eigenvalue tresh-hold
   EBREAK =  0.39E-07  absolut break condition
   DEPER  =   0.30     relativ break condition  

   TIME   =   0.40     timestep for ELM

  volume/ion in A,a.u.               =      12.50        84.36
  Fermi-wavevector in a.u.,A,eV,Ry     =   1.101477  2.081490 16.507295  1.213252
  Thomas-Fermi vector in A             =   2.237905
 
 Write flags
   LWAVE  =      F    write WAVECAR
   LCHARG =      T    write CHGCAR
   LVTOT  =      F    write LOCPOT, total local potential
   LVHAR  =      F    write LOCPOT, Hartree potential only
   LELF   =      F    write electronic localiz. function (ELF)
   LORBIT =      0    0 simple, 1 ext, 2 COOP (PROOUT)


 Dipole corrections
   LMONO  =      F    monopole corrections only (constant potential shift)
   LDIPOL =      F    correct potential (dipole corrections)
   IDIPOL =      0    1-x, 2-y, 3-z, 4-all directions 
   EPSILON=  1.0000000 bulk dielectric constant

 Exchange correlation treatment:
   GGA     =    --    GGA type
   LEXCH   =     8    internal setting for exchange type
   VOSKOWN=      0    Vosko Wilk Nusair interpolation
   LHFCALC =     F    Hartree Fock is set to
   LHFONE  =     F    Hartree Fock one center treatment
   AEXX    =    0.0000 exact exchange contribution

 Linear response parameters
   LEPSILON=     F    determine dielectric tensor
   LRPA    =     F    only Hartree local field effects (RPA)
   LNABLA  =     F    use nabla operator in PAW spheres
   LVEL    =     F    velocity operator in full k-point grid
   LINTERFAST=   F  fast interpolation
   KINTER  =     0    interpolate to denser k-point grid
   CSHIFT  =0.1000    complex shift for real part using Kramers Kronig
   OMEGAMAX=  -1.0    maximum frequency
   DEG_THRESHOLD= 0.2000000E-02 threshold for treating states as degnerate
   RTIME   =    0.100 relaxation time in fs

 Orbital magnetization related:
   ORBITALMAG=     F  switch on orbital magnetization
   LCHIMAG   =     F  perturbation theory with respect to B field
   DQ        =  0.001000  dq finite difference perturbation B field



--------------------------------------------------------------------------------------------------------


 conjugate gradient relaxation of ions
   using selective dynamics as specified on POSCAR
 charge density and potential will be updated during run
 non-spin polarized calculation
 Variant of blocked Davidson
 Davidson routine will perform the subspace rotation
 perform sub-space diagonalisation
    after iterative eigenvector-optimisation
 modified Broyden-mixing scheme, WC =      100.0
 initial mixing is a Kerker type mixing with AMIX =  0.4000 and BMIX =      1.0000
 Hartree-type preconditioning will be used
 using additional bands           14
 reciprocal scheme for non local part
 use partial core corrections
 calculate Harris-corrections to forces 
   (improved forces if not selfconsistent)
 use gradient corrections 
 use of overlap-Matrix (Vanderbilt PP)
 Gauss-broadening in eV      SIGMA  =   0.05


--------------------------------------------------------------------------------------------------------


  energy-cutoff  :      520.00
  volume of cell :      325.04
      direct lattice vectors                 reciprocal lattice vectors
     2.600457673 -1.501374484  0.000000000     0.384547693  0.000000000 -0.000000000
     0.000000000  3.002748968  0.000000000     0.192273847  0.333028172 -0.000000000
     0.000000000 -0.000000000 41.625971782     0.000000000  0.000000000  0.024023463

  length of vectors
     3.002749648  3.002748968 41.625971782     0.384547693  0.384547781  0.024023463


 
 k-points in units of 2pi/SCALE and weight: K-Spacing Value to Generate K-Mesh: 0.02
   0.00000000  0.00000000  0.00000000       0.006
   0.02958059  0.00000000 -0.00000000       0.036
   0.05916118  0.00000000 -0.00000000       0.036
   0.08874178  0.00000000 -0.00000000       0.036
   0.11832237  0.00000000 -0.00000000       0.036
   0.14790296  0.00000000 -0.00000000       0.036
   0.17748355  0.00000000 -0.00000000       0.036
   0.04437089  0.02561755 -0.00000000       0.036
   0.07395148  0.02561755 -0.00000000       0.071
   0.10353207  0.02561755 -0.00000000       0.071
   0.13311266  0.02561755 -0.00000000       0.071
   0.16269325  0.02561755 -0.00000000       0.071
   0.19227385  0.02561755 -0.00000000       0.036
   0.08874178  0.05123510 -0.00000000       0.036
   0.11832237  0.05123510 -0.00000000       0.071
   0.14790296  0.05123510 -0.00000000       0.071
   0.17748355  0.05123510 -0.00000000       0.071
   0.13311266  0.07685266 -0.00000000       0.036
   0.16269325  0.07685266 -0.00000000       0.071
   0.19227385  0.07685266 -0.00000000       0.036
   0.17748355  0.10247021 -0.00000000       0.036
 
 k-points in reciprocal lattice and weights: K-Spacing Value to Generate K-Mesh: 0.02
   0.00000000  0.00000000  0.00000000       0.006
   0.07692308  0.00000000  0.00000000       0.036
   0.15384615  0.00000000  0.00000000       0.036
   0.23076923  0.00000000  0.00000000       0.036
   0.30769231  0.00000000  0.00000000       0.036
   0.38461538  0.00000000  0.00000000       0.036
   0.46153846  0.00000000  0.00000000       0.036
   0.07692308  0.07692308 -0.00000000       0.036
   0.15384615  0.07692308 -0.00000000       0.071
   0.23076923  0.07692308  0.00000000       0.071
   0.30769231  0.07692308 -0.00000000       0.071
   0.38461538  0.07692308  0.00000000       0.071
   0.46153846  0.07692308  0.00000000       0.036
   0.15384615  0.15384615 -0.00000000       0.036
   0.23076923  0.15384615  0.00000000       0.071
   0.30769231  0.15384615 -0.00000000       0.071
   0.38461538  0.15384615  0.00000000       0.071
   0.23076923  0.23076923  0.00000000       0.036
   0.30769231  0.23076923 -0.00000000       0.071
   0.38461538  0.23076923 -0.00000000       0.036
   0.30769231  0.30769231 -0.00000000       0.036
 
 position of ions in fractional coordinates (direct lattice) 
   0.00000000  0.00000000  0.25242511
   0.33333300  0.66666700  0.31137657
   0.00000000  0.00000000  0.43405167
   0.33333300  0.66666700  0.49542484
   0.00000000  0.00000000  0.61802466
   0.33333300  0.66666700  0.67934543
   0.00000000  0.00000000  0.79964641
   0.66666700  0.33333300  0.37272895
   0.66666700  0.33333300  0.55665229
   0.66666700  0.33333300  0.74069171
   0.00000000  0.00000000  0.34204386
   0.00000000  0.00000000  0.52603723
   0.00000000  0.00000000  0.71003189
   0.66666700  0.33333300  0.28065661
   0.66666700  0.33333300  0.46476219
   0.66666700  0.33333300  0.64866277
   0.33333300  0.66666700  0.40341109
   0.33333300  0.66666700  0.58731162
   0.33333300  0.66666700  0.77142142
   0.00000000  0.00000000  0.02603730
   0.00000000  0.00000000  0.21020390
   0.66666700  0.33333300  0.15023121
   0.33333300  0.66666700  0.08709359
   0.00000000  0.00000000  0.84187006
   0.66666700  0.33333300  0.96498185
   0.33333300  0.66666700  0.90184278
 
 position of ions in cartesian coordinates  (Angst):
   0.00000000 -0.00000000 10.50744056
   0.86681836  1.50137599 12.96135220
   0.00000000 -0.00000000 18.06782252
   0.86681836  1.50137599 20.62254060
   0.00000000 -0.00000000 25.72587685
   0.86681836  1.50137599 28.27841354
   0.00000000 -0.00000000 33.28605890
   1.73363932 -0.00000150 15.51520464
   1.73363932 -0.00000150 23.17119265
   1.73363932 -0.00000150 30.83201228
   0.00000000 -0.00000000 14.23790790
   0.00000000 -0.00000000 21.89681083
   0.00000000 -0.00000000 29.55576751
   1.73363932 -0.00000150 11.68260405
   1.73363932 -0.00000150 19.34617790
   1.73363932 -0.00000150 27.00121810
   0.86681836  1.50137599 16.79237862
   0.86681836  1.50137599 24.44741684
   0.86681836  1.50137599 32.11116612
   0.00000000 -0.00000000  1.08382794
   0.00000000 -0.00000000  8.74994166
   1.73363932 -0.00000150  6.25352016
   0.86681836  1.50137599  3.62535539
   0.00000000 -0.00000000 35.04365950
   1.73363932 -0.00000150 40.16830715
   0.86681836  1.50137599 37.54008210
 


--------------------------------------------------------------------------------------------------------


 k-point  1 :   0.0000 0.0000 0.0000  plane waves:    8843
 k-point  2 :   0.0769 0.0000 0.0000  plane waves:    8855
 k-point  3 :   0.1538 0.0000 0.0000  plane waves:    8823
 k-point  4 :   0.2308 0.0000 0.0000  plane waves:    8814
 k-point  5 :   0.3077 0.0000 0.0000  plane waves:    8750
 k-point  6 :   0.3846 0.0000 0.0000  plane waves:    8712
 k-point  7 :   0.4615 0.0000 0.0000  plane waves:    8724
 k-point  8 :   0.0769 0.0769-0.0000  plane waves:    8849
 k-point  9 :   0.1538 0.0769-0.0000  plane waves:    8816
 k-point 10 :   0.2308 0.0769 0.0000  plane waves:    8765
 k-point 11 :   0.3077 0.0769-0.0000  plane waves:    8732
 k-point 12 :   0.3846 0.0769 0.0000  plane waves:    8715
 k-point 13 :   0.4615 0.0769 0.0000  plane waves:    8686
 k-point 14 :   0.1538 0.1538-0.0000  plane waves:    8767
 k-point 15 :   0.2308 0.1538 0.0000  plane waves:    8740
 k-point 16 :   0.3077 0.1538-0.0000  plane waves:    8730
 k-point 17 :   0.3846 0.1538 0.0000  plane waves:    8690
 k-point 18 :   0.2308 0.2308 0.0000  plane waves:    8736
 k-point 19 :   0.3077 0.2308-0.0000  plane waves:    8719
 k-point 20 :   0.3846 0.2308-0.0000  plane waves:    8724
 k-point 21 :   0.3077 0.3077-0.0000  plane waves:    8740

 maximum and minimum number of plane-waves per node :      2241     2154

 maximum number of plane-waves:      8855
 maximum index in each direction: 
   IXMAX=    5   IYMAX=    5   IZMAX=   77
   IXMIN=   -6   IYMIN=   -5   IZMIN=  -77

 NGX is ok and might be reduce to  24
 NGY is ok and might be reduce to  22
 NGZ is ok and might be reduce to 310

 parallel 3D FFT for wavefunctions:
    minimum data exchange during FFTs selected (reduces bandwidth)
 parallel 3D FFT for charge:
    minimum data exchange during FFTs selected (reduces bandwidth)


 total amount of memory used by VASP on root node   147392. kBytes
========================================================================

   base      :      30000. kBytes
   nonl-proj :      15468. kBytes
   fftplans  :      55171. kBytes
   grid      :      22118. kBytes
   one-center:         56. kBytes
   wavefun   :      24579. kBytes
 
     INWAV:  cpu time    0.00: real time    0.00
 Broyden mixing: mesh for mixing (old mesh)
   NGX = 11   NGY = 11   NGZ =155
  (NGX  = 48   NGY  = 48   NGZ  =640)
  gives a total of  18755 points

 initial charge density was supplied:
 charge density of overlapping atoms calculated
 number of electron      99.0000000 magnetization 
 keeping initial charge density in first step


--------------------------------------------------------------------------------------------------------


 Maximum index for augmentation-charges        23252 (set IRDMAX)


--------------------------------------------------------------------------------------------------------


 First call to EWALD:  gamma=   0.258
 Maximum number of real-space cells 6x 6x 1
 Maximum number of reciprocal cells 1x 1x14

 FEWALD executed in parallel
    FEWALD:  cpu time    0.00: real time    0.00


----------------------------------------- Iteration    1(   1)  ---------------------------------------


    POTLOK:  cpu time    0.11: real time    0.11
    SETDIJ:  cpu time    0.11: real time    0.11
     EDDAV:  cpu time    4.19: real time    4.22
       DOS:  cpu time    0.00: real time    0.00
    --------------------------------------------
      LOOP:  cpu time    4.40: real time    4.44

 eigenvalue-minimisations  :  2720
 total energy-change (2. order) : 0.5042217E+03  (-0.4418184E+04)
 number of electron      99.0000000 magnetization 
 augmentation part       99.0000000 magnetization 

 Free energy of the ion-electron system (eV)
  ---------------------------------------------------
  alpha Z        PSCENC =       129.83631115
  Ewald energy   TEWEN  =     11520.85048887
  -Hartree energ DENC   =    -16666.66863388
  -exchange      EXHF   =         0.00000000
  -V(xc)+E(xc)   XCENC  =      -343.70313475
  PAW double counting   =      4516.65612620    -3844.19644948
  entropy T*S    EENTRO =        -0.00554046
  eigenvalues    EBANDS =       285.77166903
  atomic energy  EATOM  =      4905.68083858
  ---------------------------------------------------
  free energy    TOTEN  =       504.22167526 eV

  energy without entropy =      504.22721572  energy(sigma->0) =      504.22444549


--------------------------------------------------------------------------------------------------------




----------------------------------------- Iteration    1(   2)  ---------------------------------------


     EDDAV:  cpu time    5.20: real time    5.21
       DOS:  cpu time    0.00: real time    0.00
    --------------------------------------------
      LOOP:  cpu time    5.20: real time    5.21

 eigenvalue-minimisations  :  3456
 total energy-change (2. order) :-0.6057677E+03  (-0.5763240E+03)
 number of electron      99.0000000 magnetization 
 augmentation part       99.0000000 magnetization 

 Free energy of the ion-electron system (eV)
  ---------------------------------------------------
  alpha Z        PSCENC =       129.83631115
  Ewald energy   TEWEN  =     11520.85048887
  -Hartree energ DENC   =    -16666.66863388
  -exchange      EXHF   =         0.00000000
  -V(xc)+E(xc)   XCENC  =      -343.70313475
  PAW double counting   =      4516.65612620    -3844.19644948
  entropy T*S    EENTRO =        -0.00373791
  eigenvalues    EBANDS =      -319.99778726
  atomic energy  EATOM  =      4905.68083858
  ---------------------------------------------------
  free energy    TOTEN  =      -101.54597848 eV

  energy without entropy =     -101.54224057  energy(sigma->0) =     -101.54410952


--------------------------------------------------------------------------------------------------------




----------------------------------------- Iteration    1(   3)  ---------------------------------------


     EDDAV:  cpu time    4.64: real time    4.65
       DOS:  cpu time    0.00: real time    0.00
    --------------------------------------------
      LOOP:  cpu time    4.64: real time    4.65

 eigenvalue-minimisations  :  3152
 total energy-change (2. order) :-0.5578702E+02  (-0.5549311E+02)
 number of electron      99.0000000 magnetization 
 augmentation part       99.0000000 magnetization 

 Free energy of the ion-electron system (eV)
  ---------------------------------------------------
  alpha Z        PSCENC =       129.83631115
  Ewald energy   TEWEN  =     11520.85048887
  -Hartree energ DENC   =    -16666.66863388
  -exchange      EXHF   =         0.00000000
  -V(xc)+E(xc)   XCENC  =      -343.70313475
  PAW double counting   =      4516.65612620    -3844.19644948
  entropy T*S    EENTRO =        -0.00283196
  eigenvalues    EBANDS =      -375.78571212
  atomic energy  EATOM  =      4905.68083858
  ---------------------------------------------------
  free energy    TOTEN  =      -157.33299739 eV

  energy without entropy =     -157.33016543  energy(sigma->0) =     -157.33158141


--------------------------------------------------------------------------------------------------------




----------------------------------------- Iteration    1(   4)  ---------------------------------------


     EDDAV:  cpu time    4.71: real time    4.72
       DOS:  cpu time    0.00: real time    0.00
    --------------------------------------------
      LOOP:  cpu time    4.71: real time    4.72

 eigenvalue-minimisations  :  3136
 total energy-change (2. order) :-0.7022005E+00  (-0.7011805E+00)
 number of electron      99.0000000 magnetization 
 augmentation part       99.0000000 magnetization 

 Free energy of the ion-electron system (eV)
  ---------------------------------------------------
  alpha Z        PSCENC =       129.83631115
  Ewald energy   TEWEN  =     11520.85048887
  -Hartree energ DENC   =    -16666.66863388
  -exchange      EXHF   =         0.00000000
  -V(xc)+E(xc)   XCENC  =      -343.70313475
  PAW double counting   =      4516.65612620    -3844.19644948
  entropy T*S    EENTRO =        -0.00284240
  eigenvalues    EBANDS =      -376.48790215
  atomic energy  EATOM  =      4905.68083858
  ---------------------------------------------------
  free energy    TOTEN  =      -158.03519787 eV

  energy without entropy =     -158.03235546  energy(sigma->0) =     -158.03377667


--------------------------------------------------------------------------------------------------------




----------------------------------------- Iteration    1(   5)  ---------------------------------------


     EDDAV:  cpu time    4.83: real time    4.84
       DOS:  cpu time    0.00: real time    0.00
    CHARGE:  cpu time    0.38: real time    0.38
    MIXING:  cpu time    0.00: real time    0.00
    --------------------------------------------
      LOOP:  cpu time    5.22: real time    5.22

 eigenvalue-minimisations  :  3240
 total energy-change (2. order) :-0.1046711E-01  (-0.1046360E-01)
 number of electron      99.0000001 magnetization 
 augmentation part        7.7793080 magnetization 

 Broyden mixing:
  rms(total) = 0.23627E+01    rms(broyden)= 0.23621E+01
  rms(prec ) = 0.24285E+01
  weight for this iteration     100.00

 Free energy of the ion-electron system (eV)
  ---------------------------------------------------
  alpha Z        PSCENC =       129.83631115
  Ewald energy   TEWEN  =     11520.85048887
  -Hartree energ DENC   =    -16666.66863388
  -exchange      EXHF   =         0.00000000
  -V(xc)+E(xc)   XCENC  =      -343.70313475
  PAW double counting   =      4516.65612620    -3844.19644948
  entropy T*S    EENTRO =        -0.00284289
  eigenvalues    EBANDS =      -376.49836878
  atomic energy  EATOM  =      4905.68083858
  ---------------------------------------------------
  free energy    TOTEN  =      -158.04566498 eV

  energy without entropy =     -158.04282209  energy(sigma->0) =     -158.04424353


--------------------------------------------------------------------------------------------------------




----------------------------------------- Iteration    1(   6)  ---------------------------------------


    POTLOK:  cpu time    0.10: real time    0.10
    SETDIJ:  cpu time    0.11: real time    0.11
     EDDAV:  cpu time    4.73: real time    4.74
       DOS:  cpu time    0.00: real time    0.00
    CHARGE:  cpu time    0.38: real time    0.38
    MIXING:  cpu time    0.01: real time    0.01
    --------------------------------------------
      LOOP:  cpu time    5.34: real time    5.35

 eigenvalue-minimisations  :  3184
 total energy-change (2. order) : 0.1699128E+02  (-0.9377371E+01)
 number of electron      99.0000001 magnetization 
 augmentation part        6.2544207 magnetization 

 Broyden mixing:
  rms(total) = 0.79155E+00    rms(broyden)= 0.79058E+00
  rms(prec ) = 0.79996E+00
  weight for this iteration     100.00

 eigenvalues of (default mixing * dielectric matrix)
  average eigenvalue GAMMA=   0.8426
  0.8426

 Free energy of the ion-electron system (eV)
  ---------------------------------------------------
  alpha Z        PSCENC =       129.83631115
  Ewald energy   TEWEN  =     11520.85048887
  -Hartree energ DENC   =    -16870.85170819
  -exchange      EXHF   =         0.00000000
  -V(xc)+E(xc)   XCENC  =      -330.08207392
  PAW double counting   =      5373.58072839    -4704.62899320
  entropy T*S    EENTRO =        -0.00392110
  eigenvalues    EBANDS =      -165.43605682
  atomic energy  EATOM  =      4905.68083858
  ---------------------------------------------------
  free energy    TOTEN  =      -141.05438624 eV

  energy without entropy =     -141.05046514  energy(sigma->0) =     -141.05242569


--------------------------------------------------------------------------------------------------------




----------------------------------------- Iteration    1(   7)  ---------------------------------------


    POTLOK:  cpu time    0.11: real time    0.11
    SETDIJ:  cpu time    0.12: real time    0.12
     EDDAV:  cpu time    4.60: real time    4.61
       DOS:  cpu time    0.00: real time    0.00
    CHARGE:  cpu time    0.37: real time    0.37
    MIXING:  cpu time    0.00: real time    0.00
    --------------------------------------------
      LOOP:  cpu time    5.21: real time    5.22

 eigenvalue-minimisations  :  3000
 total energy-change (2. order) :-0.2029178E-01  (-0.3597020E+00)
 number of electron      99.0000001 magnetization 
 augmentation part        6.2698431 magnetization 

 Broyden mixing:
  rms(total) = 0.49779E+00    rms(broyden)= 0.49776E+00
  rms(prec ) = 0.50669E+00
  weight for this iteration     100.00

 eigenvalues of (default mixing * dielectric matrix)
  average eigenvalue GAMMA=   1.4508
  1.0277  1.8738

 Free energy of the ion-electron system (eV)
  ---------------------------------------------------
  alpha Z        PSCENC =       129.83631115
  Ewald energy   TEWEN  =     11520.85048887
  -Hartree energ DENC   =    -16872.15821579
  -exchange      EXHF   =         0.00000000
  -V(xc)+E(xc)   XCENC  =      -329.77027554
  PAW double counting   =      5687.11995309    -5017.68213464
  entropy T*S    EENTRO =        -0.00369286
  eigenvalues    EBANDS =      -164.94795090
  atomic energy  EATOM  =      4905.68083858
  ---------------------------------------------------
  free energy    TOTEN  =      -141.07467802 eV

  energy without entropy =     -141.07098516  energy(sigma->0) =     -141.07283159


--------------------------------------------------------------------------------------------------------




----------------------------------------- Iteration    1(   8)  ---------------------------------------


    POTLOK:  cpu time    0.10: real time    0.10
    SETDIJ:  cpu time    0.10: real time    0.10
     EDDAV:  cpu time    4.66: real time    4.67
       DOS:  cpu time    0.00: real time    0.00
    CHARGE:  cpu time    0.38: real time    0.38
    MIXING:  cpu time    0.00: real time    0.00
    --------------------------------------------
      LOOP:  cpu time    5.25: real time    5.26

 eigenvalue-minimisations  :  3112
 total energy-change (2. order) : 0.1627465E+00  (-0.7913887E-01)
 number of electron      99.0000001 magnetization 
 augmentation part        6.3444839 magnetization 

 Broyden mixing:
  rms(total) = 0.13110E+00    rms(broyden)= 0.13104E+00
  rms(prec ) = 0.14064E+00
  weight for this iteration     100.00

 eigenvalues of (default mixing * dielectric matrix)
  average eigenvalue GAMMA=   1.3650
  2.3998  0.9042  0.7910

 Free energy of the ion-electron system (eV)
  ---------------------------------------------------
  alpha Z        PSCENC =       129.83631115
  Ewald energy   TEWEN  =     11520.85048887
  -Hartree energ DENC   =    -16879.18368609
  -exchange      EXHF   =         0.00000000
  -V(xc)+E(xc)   XCENC  =      -328.91779656
  PAW double counting   =      6107.53148142    -5437.70583130
  entropy T*S    EENTRO =        -0.00409181
  eigenvalues    EBANDS =      -158.99964579
  atomic energy  EATOM  =      4905.68083858
  ---------------------------------------------------
  free energy    TOTEN  =      -140.91193152 eV

  energy without entropy =     -140.90783971  energy(sigma->0) =     -140.90988561


--------------------------------------------------------------------------------------------------------




----------------------------------------- Iteration    1(   9)  ---------------------------------------


    POTLOK:  cpu time    0.10: real time    0.10
    SETDIJ:  cpu time    0.11: real time    0.11
     EDDAV:  cpu time    4.65: real time    4.66
       DOS:  cpu time    0.00: real time    0.00
    CHARGE:  cpu time    0.37: real time    0.37
    MIXING:  cpu time    0.01: real time    0.01
    --------------------------------------------
      LOOP:  cpu time    5.24: real time    5.25

 eigenvalue-minimisations  :  3096
 total energy-change (2. order) : 0.4407842E-01  (-0.1580285E-01)
 number of electron      99.0000001 magnetization 
 augmentation part        6.3097113 magnetization 

 Broyden mixing:
  rms(total) = 0.65272E-01    rms(broyden)= 0.65265E-01
  rms(prec ) = 0.74825E-01
  weight for this iteration     100.00

 eigenvalues of (default mixing * dielectric matrix)
  average eigenvalue GAMMA=   1.3106
  2.4117  0.9137  0.9137  1.0033

 Free energy of the ion-electron system (eV)
  ---------------------------------------------------
  alpha Z        PSCENC =       129.83631115
  Ewald energy   TEWEN  =     11520.85048887
  -Hartree energ DENC   =    -16888.52747906
  -exchange      EXHF   =         0.00000000
  -V(xc)+E(xc)   XCENC  =      -328.22057927
  PAW double counting   =      6219.50540173    -5549.70513936
  entropy T*S    EENTRO =        -0.00453454
  eigenvalues    EBANDS =      -150.28316122
  atomic energy  EATOM  =      4905.68083858
  ---------------------------------------------------
  free energy    TOTEN  =      -140.86785310 eV

  energy without entropy =     -140.86331856  energy(sigma->0) =     -140.86558583


--------------------------------------------------------------------------------------------------------




----------------------------------------- Iteration    1(  10)  ---------------------------------------


    POTLOK:  cpu time    0.10: real time    0.10
    SETDIJ:  cpu time    0.10: real time    0.10
     EDDAV:  cpu time    4.63: real time    4.64
       DOS:  cpu time    0.00: real time    0.00
    CHARGE:  cpu time    0.37: real time    0.37
    MIXING:  cpu time    0.01: real time    0.01
    --------------------------------------------
      LOOP:  cpu time    5.21: real time    5.22

 eigenvalue-minimisations  :  3048
 total energy-change (2. order) : 0.7468586E-02  (-0.8272876E-02)
 number of electron      99.0000001 magnetization 
 augmentation part        6.2894338 magnetization 

 Broyden mixing:
  rms(total) = 0.28561E-01    rms(broyden)= 0.28530E-01
  rms(prec ) = 0.41083E-01
  weight for this iteration     100.00

 eigenvalues of (default mixing * dielectric matrix)
  average eigenvalue GAMMA=   1.3582
  2.5447  1.6814  0.9718  0.7965  0.7965

 Free energy of the ion-electron system (eV)
  ---------------------------------------------------
  alpha Z        PSCENC =       129.83631115
  Ewald energy   TEWEN  =     11520.85048887
  -Hartree energ DENC   =    -16891.55021469
  -exchange      EXHF   =         0.00000000
  -V(xc)+E(xc)   XCENC  =      -328.08080061
  PAW double counting   =      6205.42542917    -5535.65333484
  entropy T*S    EENTRO =        -0.00477041
  eigenvalues    EBANDS =      -147.36433174
  atomic energy  EATOM  =      4905.68083858
  ---------------------------------------------------
  free energy    TOTEN  =      -140.86038451 eV

  energy without entropy =     -140.85561410  energy(sigma->0) =     -140.85799931


--------------------------------------------------------------------------------------------------------




----------------------------------------- Iteration    1(  11)  ---------------------------------------


    POTLOK:  cpu time    0.10: real time    0.10
    SETDIJ:  cpu time    0.10: real time    0.10
     EDDAV:  cpu time    5.09: real time    5.10
       DOS:  cpu time    0.00: real time    0.00
    CHARGE:  cpu time    0.37: real time    0.37
    MIXING:  cpu time    0.01: real time    0.01
    --------------------------------------------
      LOOP:  cpu time    5.68: real time    5.68

 eigenvalue-minimisations  :  3472
 total energy-change (2. order) : 0.7877825E-02  (-0.7895917E-03)
 number of electron      99.0000001 magnetization 
 augmentation part        6.2848589 magnetization 

 Broyden mixing:
  rms(total) = 0.21452E-01    rms(broyden)= 0.21449E-01
  rms(prec ) = 0.36578E-01
  weight for this iteration     100.00

 eigenvalues of (default mixing * dielectric matrix)
  average eigenvalue GAMMA=   1.4201
  2.5633  2.3651  0.9477  0.9477  0.8485  0.8485

 Free energy of the ion-electron system (eV)
  ---------------------------------------------------
  alpha Z        PSCENC =       129.83631115
  Ewald energy   TEWEN  =     11520.85048887
  -Hartree energ DENC   =    -16894.25551852
  -exchange      EXHF   =         0.00000000
  -V(xc)+E(xc)   XCENC  =      -327.98248340
  PAW double counting   =      6181.89786805    -5512.14093905
  entropy T*S    EENTRO =        -0.00479509
  eigenvalues    EBANDS =      -144.73427730
  atomic energy  EATOM  =      4905.68083858
  ---------------------------------------------------
  free energy    TOTEN  =      -140.85250669 eV

  energy without entropy =     -140.84771160  energy(sigma->0) =     -140.85010915


--------------------------------------------------------------------------------------------------------




----------------------------------------- Iteration    1(  12)  ---------------------------------------


    POTLOK:  cpu time    0.10: real time    0.10
    SETDIJ:  cpu time    0.10: real time    0.10
     EDDAV:  cpu time    5.16: real time    5.17
       DOS:  cpu time    0.00: real time    0.00
    CHARGE:  cpu time    0.37: real time    0.37
    MIXING:  cpu time    0.01: real time    0.01
    --------------------------------------------
      LOOP:  cpu time    5.74: real time    5.75

 eigenvalue-minimisations  :  3472
 total energy-change (2. order) : 0.4937075E-02  (-0.5419152E-03)
 number of electron      99.0000001 magnetization 
 augmentation part        6.2841184 magnetization 

 Broyden mixing:
  rms(total) = 0.16080E-01    rms(broyden)= 0.16079E-01
  rms(prec ) = 0.30648E-01
  weight for this iteration     100.00

 eigenvalues of (default mixing * dielectric matrix)
  average eigenvalue GAMMA=   1.3690
  2.6280  2.6280  0.9891  0.9891  0.8795  0.8795  0.5895

 Free energy of the ion-electron system (eV)
  ---------------------------------------------------
  alpha Z        PSCENC =       129.83631115
  Ewald energy   TEWEN  =     11520.85048887
  -Hartree energ DENC   =    -16895.47962821
  -exchange      EXHF   =         0.00000000
  -V(xc)+E(xc)   XCENC  =      -327.97496487
  PAW double counting   =      6169.61115888    -5499.85609503
  entropy T*S    EENTRO =        -0.00483612
  eigenvalues    EBANDS =      -143.51084288
  atomic energy  EATOM  =      4905.68083858
  ---------------------------------------------------
  free energy    TOTEN  =      -140.84756962 eV

  energy without entropy =     -140.84273350  energy(sigma->0) =     -140.84515156


--------------------------------------------------------------------------------------------------------




----------------------------------------- Iteration    1(  13)  ---------------------------------------


    POTLOK:  cpu time    0.10: real time    0.10
    SETDIJ:  cpu time    0.11: real time    0.11
     EDDAV:  cpu time    5.85: real time    5.86
       DOS:  cpu time    0.00: real time    0.00
    CHARGE:  cpu time    0.37: real time    0.37
    MIXING:  cpu time    0.01: real time    0.01
    --------------------------------------------
      LOOP:  cpu time    6.44: real time    6.45

 eigenvalue-minimisations  :  4160
 total energy-change (2. order) : 0.9235301E-02  (-0.6175997E-03)
 number of electron      99.0000001 magnetization 
 augmentation part        6.2873428 magnetization 

 Broyden mixing:
  rms(total) = 0.90430E-02    rms(broyden)= 0.90403E-02
  rms(prec ) = 0.24248E-01
  weight for this iteration     100.00

 eigenvalues of (default mixing * dielectric matrix)
  average eigenvalue GAMMA=   1.3813
  2.8407  2.5147  1.3277  0.8439  0.8439  0.9345  0.9345  0.8106

 Free energy of the ion-electron system (eV)
  ---------------------------------------------------
  alpha Z        PSCENC =       129.83631115
  Ewald energy   TEWEN  =     11520.85048887
  -Hartree energ DENC   =    -16897.47975360
  -exchange      EXHF   =         0.00000000
  -V(xc)+E(xc)   XCENC  =      -328.02630644
  PAW double counting   =      6149.84028541    -5480.07666215
  entropy T*S    EENTRO =        -0.00488836
  eigenvalues    EBANDS =      -141.45864778
  atomic energy  EATOM  =      4905.68083858
  ---------------------------------------------------
  free energy    TOTEN  =      -140.83833431 eV

  energy without entropy =     -140.83344595  energy(sigma->0) =     -140.83589013


--------------------------------------------------------------------------------------------------------




----------------------------------------- Iteration    1(  14)  ---------------------------------------


    POTLOK:  cpu time    0.10: real time    0.10
    SETDIJ:  cpu time    0.11: real time    0.11
     EDDAV:  cpu time    5.48: real time    5.49
       DOS:  cpu time    0.00: real time    0.00
    CHARGE:  cpu time    0.37: real time    0.37
    MIXING:  cpu time    0.01: real time    0.01
    --------------------------------------------
      LOOP:  cpu time    6.07: real time    6.08

 eigenvalue-minimisations  :  3752
 total energy-change (2. order) : 0.6184482E-02  (-0.1055112E-02)
 number of electron      99.0000001 magnetization 
 augmentation part        6.2907949 magnetization 

 Broyden mixing:
  rms(total) = 0.12846E-01    rms(broyden)= 0.12842E-01
  rms(prec ) = 0.22889E-01
  weight for this iteration     100.00

 eigenvalues of (default mixing * dielectric matrix)
  average eigenvalue GAMMA=   1.4106
  3.1608  2.5047  1.3514  1.3514  1.0863  0.8671  0.8671  0.8249  0.6821

 Free energy of the ion-electron system (eV)
  ---------------------------------------------------
  alpha Z        PSCENC =       129.83631115
  Ewald energy   TEWEN  =     11520.85048887
  -Hartree energ DENC   =    -16899.65916935
  -exchange      EXHF   =         0.00000000
  -V(xc)+E(xc)   XCENC  =      -328.05809139
  PAW double counting   =      6147.41080877    -5477.63836492
  entropy T*S    EENTRO =        -0.00491526
  eigenvalues    EBANDS =      -139.25005629
  atomic energy  EATOM  =      4905.68083858
  ---------------------------------------------------
  free energy    TOTEN  =      -140.83214983 eV

  energy without entropy =     -140.82723458  energy(sigma->0) =     -140.82969220


--------------------------------------------------------------------------------------------------------




----------------------------------------- Iteration    1(  15)  ---------------------------------------


    POTLOK:  cpu time    0.10: real time    0.10
    SETDIJ:  cpu time    0.10: real time    0.10
     EDDAV:  cpu time    5.89: real time    5.90
       DOS:  cpu time    0.00: real time    0.00
    CHARGE:  cpu time    0.38: real time    0.38
    MIXING:  cpu time    0.01: real time    0.01
    --------------------------------------------
      LOOP:  cpu time    6.48: real time    6.49

 eigenvalue-minimisations  :  4152
 total energy-change (2. order) : 0.8228370E-02  (-0.9060993E-03)
 number of electron      99.0000001 magnetization 
 augmentation part        6.2860505 magnetization 

 Broyden mixing:
  rms(total) = 0.91001E-02    rms(broyden)= 0.90973E-02
  rms(prec ) = 0.16188E-01
  weight for this iteration     100.00

 eigenvalues of (default mixing * dielectric matrix)
  average eigenvalue GAMMA=   1.5664
  4.4104  2.7179  2.2642  1.0324  1.0324  0.8203  0.8203  0.9318  0.9318  0.7022

 Free energy of the ion-electron system (eV)
  ---------------------------------------------------
  alpha Z        PSCENC =       129.83631115
  Ewald energy   TEWEN  =     11520.85048887
  -Hartree energ DENC   =    -16904.40166860
  -exchange      EXHF   =         0.00000000
  -V(xc)+E(xc)   XCENC  =      -328.04260015
  PAW double counting   =      6150.45175180    -5480.68266410
  entropy T*S    EENTRO =        -0.00494316
  eigenvalues    EBANDS =      -134.51143585
  atomic energy  EATOM  =      4905.68083858
  ---------------------------------------------------
  free energy    TOTEN  =      -140.82392146 eV

  energy without entropy =     -140.81897830  energy(sigma->0) =     -140.82144988


--------------------------------------------------------------------------------------------------------




----------------------------------------- Iteration    1(  16)  ---------------------------------------


    POTLOK:  cpu time    0.11: real time    0.11
    SETDIJ:  cpu time    0.11: real time    0.11
     EDDAV:  cpu time    4.78: real time    4.78
       DOS:  cpu time    0.00: real time    0.00
    CHARGE:  cpu time    0.37: real time    0.37
    MIXING:  cpu time    0.01: real time    0.01
    --------------------------------------------
      LOOP:  cpu time    5.37: real time    5.38

 eigenvalue-minimisations  :  3216
 total energy-change (2. order) : 0.3223301E-02  (-0.9266755E-03)
 number of electron      99.0000001 magnetization 
 augmentation part        6.2847206 magnetization 

 Broyden mixing:
  rms(total) = 0.83641E-02    rms(broyden)= 0.83619E-02
  rms(prec ) = 0.12418E-01
  weight for this iteration     100.00

 eigenvalues of (default mixing * dielectric matrix)
  average eigenvalue GAMMA=   1.6002
  5.0622  2.8182  2.3794  1.2305  1.2305  0.8416  0.8416  0.9512  0.9512  0.6993
  0.5969

 Free energy of the ion-electron system (eV)
  ---------------------------------------------------
  alpha Z        PSCENC =       129.83631115
  Ewald energy   TEWEN  =     11520.85048887
  -Hartree energ DENC   =    -16907.11686450
  -exchange      EXHF   =         0.00000000
  -V(xc)+E(xc)   XCENC  =      -328.06581865
  PAW double counting   =      6152.58039838    -5482.80733669
  entropy T*S    EENTRO =        -0.00492583
  eigenvalues    EBANDS =      -131.77378947
  atomic energy  EATOM  =      4905.68083858
  ---------------------------------------------------
  free energy    TOTEN  =      -140.82069816 eV

  energy without entropy =     -140.81577233  energy(sigma->0) =     -140.81823524


--------------------------------------------------------------------------------------------------------




----------------------------------------- Iteration    1(  17)  ---------------------------------------


    POTLOK:  cpu time    0.10: real time    0.10
    SETDIJ:  cpu time    0.11: real time    0.11
     EDDAV:  cpu time    4.62: real time    4.63
       DOS:  cpu time    0.00: real time    0.00
    CHARGE:  cpu time    0.37: real time    0.37
    MIXING:  cpu time    0.01: real time    0.01
    --------------------------------------------
      LOOP:  cpu time    5.20: real time    5.21

 eigenvalue-minimisations  :  3088
 total energy-change (2. order) : 0.1478904E-02  (-0.6298467E-03)
 number of electron      99.0000001 magnetization 
 augmentation part        6.2860137 magnetization 

 Broyden mixing:
  rms(total) = 0.65509E-02    rms(broyden)= 0.65487E-02
  rms(prec ) = 0.98321E-02
  weight for this iteration     100.00

 eigenvalues of (default mixing * dielectric matrix)
  average eigenvalue GAMMA=   1.6829
  5.8742  2.8861  2.1991  2.1991  1.1938  1.0289  1.0289  0.8529  0.8529  0.7316
  0.6735  0.6735

 Free energy of the ion-electron system (eV)
  ---------------------------------------------------
  alpha Z        PSCENC =       129.83631115
  Ewald energy   TEWEN  =     11520.85048887
  -Hartree energ DENC   =    -16908.08943025
  -exchange      EXHF   =         0.00000000
  -V(xc)+E(xc)   XCENC  =      -328.09514308
  PAW double counting   =      6156.99988795    -5487.22101096
  entropy T*S    EENTRO =        -0.00492935
  eigenvalues    EBANDS =      -130.77623217
  atomic energy  EATOM  =      4905.68083858
  ---------------------------------------------------
  free energy    TOTEN  =      -140.81921926 eV

  energy without entropy =     -140.81428991  energy(sigma->0) =     -140.81675458


--------------------------------------------------------------------------------------------------------




----------------------------------------- Iteration    1(  18)  ---------------------------------------


    POTLOK:  cpu time    0.10: real time    0.10
    SETDIJ:  cpu time    0.10: real time    0.10
     EDDAV:  cpu time    6.03: real time    6.04
       DOS:  cpu time    0.00: real time    0.00
    CHARGE:  cpu time    0.36: real time    0.37
    MIXING:  cpu time    0.01: real time    0.01
    --------------------------------------------
      LOOP:  cpu time    6.60: real time    6.61

 eigenvalue-minimisations  :  4352
 total energy-change (2. order) : 0.1925504E-02  (-0.2471362E-03)
 number of electron      99.0000001 magnetization 
 augmentation part        6.2854360 magnetization 

 Broyden mixing:
  rms(total) = 0.69949E-02    rms(broyden)= 0.69936E-02
  rms(prec ) = 0.86492E-02
  weight for this iteration     100.00

 eigenvalues of (default mixing * dielectric matrix)
  average eigenvalue GAMMA=   1.8142
  7.6705  3.1595  2.4849  2.4849  0.9967  0.9967  1.0186  1.0186  0.8511  0.8511
  0.7999  0.7333  0.5183

 Free energy of the ion-electron system (eV)
  ---------------------------------------------------
  alpha Z        PSCENC =       129.83631115
  Ewald energy   TEWEN  =     11520.85048887
  -Hartree energ DENC   =    -16909.73493446
  -exchange      EXHF   =         0.00000000
  -V(xc)+E(xc)   XCENC  =      -328.08376571
  PAW double counting   =      6158.30204306    -5488.52736746
  entropy T*S    EENTRO =        -0.00492214
  eigenvalues    EBANDS =      -129.13598565
  atomic energy  EATOM  =      4905.68083858
  ---------------------------------------------------
  free energy    TOTEN  =      -140.81729375 eV

  energy without entropy =     -140.81237161  energy(sigma->0) =     -140.81483268


--------------------------------------------------------------------------------------------------------




----------------------------------------- Iteration    1(  19)  ---------------------------------------


    POTLOK:  cpu time    0.10: real time    0.10
    SETDIJ:  cpu time    0.10: real time    0.10
     EDDAV:  cpu time    5.65: real time    5.66
       DOS:  cpu time    0.00: real time    0.00
    CHARGE:  cpu time    0.36: real time    0.37
    MIXING:  cpu time    0.01: real time    0.01
    --------------------------------------------
      LOOP:  cpu time    6.22: real time    6.23

 eigenvalue-minimisations  :  3824
 total energy-change (2. order) : 0.9319140E-03  (-0.2688675E-03)
 number of electron      99.0000001 magnetization 
 augmentation part        6.2839195 magnetization 

 Broyden mixing:
  rms(total) = 0.51208E-02    rms(broyden)= 0.51195E-02
  rms(prec ) = 0.59854E-02
  weight for this iteration     100.00

 eigenvalues of (default mixing * dielectric matrix)
  average eigenvalue GAMMA=   1.9806
  9.3674  4.2227  2.5282  2.5282  1.2442  1.2442  0.8435  0.8435  1.0180  1.0180
  0.8220  0.8220  0.6683  0.5580

 Free energy of the ion-electron system (eV)
  ---------------------------------------------------
  alpha Z        PSCENC =       129.83631115
  Ewald energy   TEWEN  =     11520.85048887
  -Hartree energ DENC   =    -16911.18682957
  -exchange      EXHF   =         0.00000000
  -V(xc)+E(xc)   XCENC  =      -328.07086901
  PAW double counting   =      6157.32367650    -5487.55299866
  entropy T*S    EENTRO =        -0.00490936
  eigenvalues    EBANDS =      -127.69207035
  atomic energy  EATOM  =      4905.68083858
  ---------------------------------------------------
  free energy    TOTEN  =      -140.81636184 eV

  energy without entropy =     -140.81145248  energy(sigma->0) =     -140.81390716


--------------------------------------------------------------------------------------------------------




----------------------------------------- Iteration    1(  20)  ---------------------------------------


    POTLOK:  cpu time    0.10: real time    0.10
    SETDIJ:  cpu time    0.10: real time    0.10
     EDDAV:  cpu time    5.79: real time    5.80
       DOS:  cpu time    0.00: real time    0.00
    CHARGE:  cpu time    0.37: real time    0.37
    MIXING:  cpu time    0.01: real time    0.01
    --------------------------------------------
      LOOP:  cpu time    6.38: real time    6.39

 eigenvalue-minimisations  :  4120
 total energy-change (2. order) : 0.3393155E-03  (-0.3661836E-03)
 number of electron      99.0000001 magnetization 
 augmentation part        6.2826099 magnetization 

 Broyden mixing:
  rms(total) = 0.63074E-02    rms(broyden)= 0.63050E-02
  rms(prec ) = 0.64881E-02
  weight for this iteration     100.00

 eigenvalues of (default mixing * dielectric matrix)
  average eigenvalue GAMMA=   2.1033
 11.0615  4.9372  2.8280  2.4544  1.0582  1.0582  1.2272  1.2272  0.8411  0.8411
  0.9920  0.9920  0.7395  0.7395  0.5518

 Free energy of the ion-electron system (eV)
  ---------------------------------------------------
  alpha Z        PSCENC =       129.83631115
  Ewald energy   TEWEN  =     11520.85048887
  -Hartree energ DENC   =    -16912.24307987
  -exchange      EXHF   =         0.00000000
  -V(xc)+E(xc)   XCENC  =      -328.05817095
  PAW double counting   =      6154.88499536    -5485.11714994
  entropy T*S    EENTRO =        -0.00491406
  eigenvalues    EBANDS =      -126.64534168
  atomic energy  EATOM  =      4905.68083858
  ---------------------------------------------------
  free energy    TOTEN  =      -140.81602252 eV

  energy without entropy =     -140.81110847  energy(sigma->0) =     -140.81356550


--------------------------------------------------------------------------------------------------------




----------------------------------------- Iteration    1(  21)  ---------------------------------------


    POTLOK:  cpu time    0.11: real time    0.11
    SETDIJ:  cpu time    0.11: real time    0.11
     EDDAV:  cpu time    4.49: real time    4.50
       DOS:  cpu time    0.00: real time    0.00
    CHARGE:  cpu time    0.37: real time    0.37
    MIXING:  cpu time    0.01: real time    0.01
    --------------------------------------------
      LOOP:  cpu time    5.08: real time    5.09

 eigenvalue-minimisations  :  2968
 total energy-change (2. order) :-0.1703813E-03  (-0.3148395E-03)
 number of electron      99.0000001 magnetization 
 augmentation part        6.2834546 magnetization 

 Broyden mixing:
  rms(total) = 0.68821E-02    rms(broyden)= 0.68806E-02
  rms(prec ) = 0.70083E-02
  weight for this iteration     100.00

 eigenvalues of (default mixing * dielectric matrix)
  average eigenvalue GAMMA=   2.1142
 12.6291  5.0832  2.9036  2.4776  1.3272  1.0547  1.0547  1.1655  0.9883  0.9883
  0.8317  0.8317  0.7403  0.7403  0.5616  0.4497

 Free energy of the ion-electron system (eV)
  ---------------------------------------------------
  alpha Z        PSCENC =       129.83631115
  Ewald energy   TEWEN  =     11520.85048887
  -Hartree energ DENC   =    -16912.24183217
  -exchange      EXHF   =         0.00000000
  -V(xc)+E(xc)   XCENC  =      -328.06524957
  PAW double counting   =      6152.36776936    -5482.59686911
  entropy T*S    EENTRO =        -0.00491649
  eigenvalues    EBANDS =      -126.64273353
  atomic energy  EATOM  =      4905.68083858
  ---------------------------------------------------
  free energy    TOTEN  =      -140.81619290 eV

  energy without entropy =     -140.81127641  energy(sigma->0) =     -140.81373466


--------------------------------------------------------------------------------------------------------




----------------------------------------- Iteration    1(  22)  ---------------------------------------


    POTLOK:  cpu time    0.10: real time    0.10
    SETDIJ:  cpu time    0.10: real time    0.10
     EDDAV:  cpu time    4.47: real time    4.48
       DOS:  cpu time    0.00: real time    0.00
    CHARGE:  cpu time    0.37: real time    0.37
    MIXING:  cpu time    0.01: real time    0.01
    --------------------------------------------
      LOOP:  cpu time    5.06: real time    5.07

 eigenvalue-minimisations  :  2936
 total energy-change (2. order) : 0.7419776E-04  (-0.4206882E-04)
 number of electron      99.0000001 magnetization 
 augmentation part        6.2839514 magnetization 

 Broyden mixing:
  rms(total) = 0.37407E-02    rms(broyden)= 0.37401E-02
  rms(prec ) = 0.38126E-02
  weight for this iteration     100.00

 eigenvalues of (default mixing * dielectric matrix)
  average eigenvalue GAMMA=   2.5982
 20.3908  5.9630  2.9168  2.4827  1.9400  0.8703  0.8703  1.0336  1.0336  0.8433
  0.8433  1.0478  0.9607  0.9607  0.7316  0.7316  0.5488

 Free energy of the ion-electron system (eV)
  ---------------------------------------------------
  alpha Z        PSCENC =       129.83631115
  Ewald energy   TEWEN  =     11520.85048887
  -Hartree energ DENC   =    -16912.06504542
  -exchange      EXHF   =         0.00000000
  -V(xc)+E(xc)   XCENC  =      -328.06934597
  PAW double counting   =      6151.02890385    -5481.25723562
  entropy T*S    EENTRO =        -0.00491451
  eigenvalues    EBANDS =      -126.81611965
  atomic energy  EATOM  =      4905.68083858
  ---------------------------------------------------
  free energy    TOTEN  =      -140.81611871 eV

  energy without entropy =     -140.81120420  energy(sigma->0) =     -140.81366145


--------------------------------------------------------------------------------------------------------




----------------------------------------- Iteration    1(  23)  ---------------------------------------


    POTLOK:  cpu time    0.10: real time    0.10
    SETDIJ:  cpu time    0.10: real time    0.10
     EDDAV:  cpu time    4.43: real time    4.44
       DOS:  cpu time    0.00: real time    0.00
    CHARGE:  cpu time    0.37: real time    0.37
    MIXING:  cpu time    0.01: real time    0.01
    --------------------------------------------
      LOOP:  cpu time    5.01: real time    5.02

 eigenvalue-minimisations  :  2928
 total energy-change (2. order) : 0.1435121E-04  (-0.1244865E-04)
 number of electron      99.0000001 magnetization 
 augmentation part        6.2839533 magnetization 

 Broyden mixing:
  rms(total) = 0.20346E-02    rms(broyden)= 0.20343E-02
  rms(prec ) = 0.20714E-02
  weight for this iteration     100.00

 eigenvalues of (default mixing * dielectric matrix)
  average eigenvalue GAMMA=   2.6400
 22.1831  6.2030  2.8627  2.4690  2.2074  0.9730  0.9730  1.1064  1.1064  1.0318
  1.0318  0.8523  0.8523  0.9520  0.7442  0.7442  0.6774  0.5496

 Free energy of the ion-electron system (eV)
  ---------------------------------------------------
  alpha Z        PSCENC =       129.83631115
  Ewald energy   TEWEN  =     11520.85048887
  -Hartree energ DENC   =    -16912.06988119
  -exchange      EXHF   =         0.00000000
  -V(xc)+E(xc)   XCENC  =      -328.07011981
  PAW double counting   =      6150.80932597    -5481.03726936
  entropy T*S    EENTRO =        -0.00491505
  eigenvalues    EBANDS =      -126.81088352
  atomic energy  EATOM  =      4905.68083858
  ---------------------------------------------------
  free energy    TOTEN  =      -140.81610436 eV

  energy without entropy =     -140.81118930  energy(sigma->0) =     -140.81364683


--------------------------------------------------------------------------------------------------------




----------------------------------------- Iteration    1(  24)  ---------------------------------------


    POTLOK:  cpu time    0.10: real time    0.10
    SETDIJ:  cpu time    0.10: real time    0.10
     EDDAV:  cpu time    4.09: real time    4.10
       DOS:  cpu time    0.00: real time    0.00
    --------------------------------------------
      LOOP:  cpu time    4.30: real time    4.31

 eigenvalue-minimisations  :  2616
 total energy-change (2. order) : 0.7393442E-05  (-0.4121198E-05)
 number of electron      99.0000001 magnetization 
 augmentation part        6.2839533 magnetization 

 Free energy of the ion-electron system (eV)
  ---------------------------------------------------
  alpha Z        PSCENC =       129.83631115
  Ewald energy   TEWEN  =     11520.85048887
  -Hartree energ DENC   =    -16912.12951537
  -exchange      EXHF   =         0.00000000
  -V(xc)+E(xc)   XCENC  =      -328.07014544
  PAW double counting   =      6150.68808131    -5480.91582526
  entropy T*S    EENTRO =        -0.00491456
  eigenvalues    EBANDS =      -126.75141624
  atomic energy  EATOM  =      4905.68083858
  ---------------------------------------------------
  free energy    TOTEN  =      -140.81609696 eV

  energy without entropy =     -140.81118240  energy(sigma->0) =     -140.81363968


--------------------------------------------------------------------------------------------------------




 average (electrostatic) potential at core
  the test charge radii are     0.7215  1.0714  1.0406
  (the norm of the test charge is              1.0000)
       1 -69.7286       2 -69.0422       3 -69.0453       4 -69.0599       5 -69.0410
       6 -69.0275       7 -69.7284       8 -69.0337       9 -69.0584      10 -69.0378
      11 -34.7503      12 -34.7563      13 -34.7443      14 -34.7487      15 -34.7660
      16 -34.7430      17 -34.7486      18 -34.7630      19 -34.7467      20 -76.0621
      21 -75.6595      22 -76.1548      23 -76.0827      24 -75.6596      25 -76.0827
      26 -76.1549
 
 
 
 E-fermi :   4.7774     XC(G=0): -10.2518     alpha+bet :-12.3245


 k-point     1 :       0.0000    0.0000    0.0000
  band No.  band energies     occupation 
      1     -13.6284      2.00000
      2     -13.6277      2.00000
      3     -13.2097      2.00000
      4     -13.1031      2.00000
      5     -12.9678      2.00000
      6     -12.8003      2.00000
      7     -12.6254      2.00000
      8     -12.4579      2.00000
      9     -12.3137      2.00000
     10     -12.2315      2.00000
     11      -4.9647      2.00000
     12      -4.6499      2.00000
     13      -4.2140      2.00000
     14      -3.4594      2.00000
     15      -2.5377      2.00000
     16      -1.7580      2.00000
     17      -1.0267      2.00000
     18      -0.6501      2.00000
     19      -0.4599      2.00000
     20       0.0837      2.00000
[...]
     53       5.8563      0.00000
     54       6.0393      0.00000
     55       6.5281      0.00000
     56       6.6356      0.00000
     57       7.4173      0.00000
     58       7.4591      0.00000
     59       8.0686      0.00000
     60       8.5795      0.00000
     61       8.7164      0.00000
     62       9.3561      0.00000
     63       9.5976      0.00000
     64       9.7830      0.00000

 k-point    19 :       0.3077    0.2308   -0.0000
  band No.  band energies     occupation 
      1     -12.8918      2.00000
      2     -12.8917      2.00000
      3     -12.0828      2.00000
      4     -12.0692      2.00000
      5     -12.0381      2.00000
      6     -11.9987      2.00000
      7     -11.9597      2.00000
      8     -11.9243      2.00000
      9     -11.8910      2.00000
     10     -11.8641      2.00000
     11      -0.4382      2.00000
     12      -0.4261      2.00000
     13      -0.1496      2.00000
     14      -0.1148      2.00000
     15      -0.0562      2.00000
     16       0.0342      2.00000
     17       0.1649      2.00000
     18       0.2299      2.00000
     19       0.3060      2.00000
     20       0.3153      2.00000
     21       0.4141      2.00000
     22       0.5015      2.00000
     23       0.7113      2.00000
     24       0.7734      2.00000
     25       0.9480      2.00000
     26       1.1868      2.00000
     27       1.3470      2.00000
     28       1.3674      2.00000
     29       1.3885      2.00000
     30       1.5508      2.00000
     31       1.5766      2.00000
     32       1.7111      2.00000
     33       1.7674      2.00000
     34       1.8789      2.00000
     35       1.9319      2.00000
     36       2.0618      2.00000
     37       2.1424      2.00000
     38       2.2938      2.00000
     39       2.4302      2.00000
     40       2.5201      2.00000
     41       2.5985      2.00000
     42       2.6883      2.00000
     43       2.7808      2.00000
     44       2.7894      2.00000
     45       2.8926      2.00000
     46       3.0790      2.00000
     47       3.4633      2.00000
     48       3.6985      2.00000
     49       4.0216      2.00000
     50       4.6232      2.00000
     51       4.7561      1.87662
     52       4.8721      0.08180
     53       5.1379      0.00000
     54       5.5653      0.00000
     55       5.7545      0.00000
     56       6.2712      0.00000
     57       6.7302      0.00000
     58       7.1084      0.00000
     59       7.4105      0.00000
     60       7.9101      0.00000
     61       8.4212      0.00000
     62       8.5821      0.00000
     63       9.4561      0.00000
     64       9.5356      0.00000

 k-point    20 :       0.3846    0.2308   -0.0000
  band No.  band energies     occupation 
      1     -12.8566      2.00000
      2     -12.8565      2.00000
      3     -11.9966      2.00000
      4     -11.9917      2.00000
      5     -11.9747      2.00000
      6     -11.9548      2.00000
      7     -11.9356      2.00000
      8     -11.9163      2.00000
      9     -11.8954      2.00000
     10     -11.8773      2.00000
     11      -0.2688      2.00000
     12      -0.2652      2.00000
     13      -0.0770      2.00000
     14      -0.0664      2.00000
     15      -0.0191      2.00000
     16       0.1457      2.00000
     17       0.3331      2.00000
     18       0.3453      2.00000
     19       0.3951      2.00000
     20       0.4329      2.00000
     21       0.6483      2.00000
     22       0.6512      2.00000
     23       1.2016      2.00000
     24       1.2263      2.00000
     25       1.3382      2.00000
     26       1.3420      2.00000
     27       1.3540      2.00000
     28       1.3763      2.00000
     29       1.3961      2.00000
     30       1.4414      2.00000
     31       1.5080      2.00000
     32       1.6209      2.00000
     33       1.7699      2.00000
     34       1.8143      2.00000
     35       1.8400      2.00000
     36       1.9804      2.00000
     37       2.1889      2.00000
     38       2.2751      2.00000
     39       2.3317      2.00000
     40       2.3610      2.00000
     41       2.4134      2.00000
     42       2.4490      2.00000
     43       2.5827      2.00000
     44       2.6833      2.00000
     45       2.7605      2.00000
     46       2.7636      2.00000
     47       2.9162      2.00000
     48       3.0809      2.00000
     49       3.9316      2.00000
     50       4.4022      2.00000
     51       4.5385      2.00000
     52       4.8889      0.02672
     53       4.9607      0.00002
     54       5.3622      0.00000
     55       5.4582      0.00000
     56       6.1765      0.00000
     57       6.3704      0.00000
     58       6.5608      0.00000
     59       7.3662      0.00000
     60       7.9790      0.00000
     61       8.1033      0.00000
     62       8.5909      0.00000
     63       9.2176      0.00000
     64       9.4219      0.00000

 k-point    21 :       0.3077    0.3077   -0.0000
  band No.  band energies     occupation 
      1     -12.8413      2.00000
      2     -12.8413      2.00000
      3     -11.9659      2.00000
      4     -11.9619      2.00000
      5     -11.9475      2.00000
      6     -11.9340      2.00000
      7     -11.9217      2.00000
      8     -11.9082      2.00000
      9     -11.8928      2.00000
     10     -11.8794      2.00000
     11      -0.1332      2.00000
     12      -0.1323      2.00000
     13       0.1394      2.00000
     14       0.1427      2.00000
     15       0.2890      2.00000
     16       0.3056      2.00000
     17       0.3980      2.00000
     18       0.4275      2.00000
     19       0.4964      2.00000
     20       0.5937      2.00000
     21       0.6625      2.00000
     22       0.7912      2.00000
     23       0.8873      2.00000
     24       0.9147      2.00000
     25       1.0528      2.00000
     26       1.0888      2.00000
     27       1.0977      2.00000
     28       1.2298      2.00000
     29       1.2881      2.00000
     30       1.3322      2.00000
     31       1.4675      2.00000
     32       1.5377      2.00000
     33       1.5470      2.00000
     34       1.7341      2.00000
     35       2.1380      2.00000
     36       2.3112      2.00000
     37       2.4040      2.00000
     38       2.4989      2.00000
     39       2.5302      2.00000
     40       2.5834      2.00000
     41       2.5842      2.00000
     42       2.6163      2.00000
     43       2.7246      2.00000
     44       2.8112      2.00000
     45       2.8258      2.00000
     46       2.9293      2.00000
     47       3.2375      2.00000
     48       3.2407      2.00000
     49       3.6230      2.00000
     50       3.6573      2.00000
     51       3.8855      2.00000
     52       4.2510      2.00000
     53       4.6438      2.00000
     54       5.2091      0.00000
     55       5.4646      0.00000
     56       5.8444      0.00000
     57       6.3368      0.00000
     58       6.5199      0.00000
     59       6.9482      0.00000
     60       7.5451      0.00000
     61       7.9397      0.00000
     62       8.0897      0.00000
     63       9.3151      0.00000
     64       9.6235      0.00000


--------------------------------------------------------------------------------------------------------


 soft charge-density along one line, spin component           1
         0         1         2         3         4         5         6         7         8         9
 total charge-density along one line
 
 pseudopotential strength for first ion, spin component:           1
 12.116   0.000 -14.737   0.000  -0.000   0.000   0.022   0.000   0.000   0.000   0.000   0.000  -0.027   0.000  -0.000   0.000
-14.737   0.000  17.944   0.000   0.000   0.000  -0.028   0.000  -0.000   0.000  -0.000   0.000   0.035   0.000   0.000   0.000
 -0.000   0.000   0.000   0.000  -8.217   0.000  -0.000   0.000   0.000   0.000   9.817   0.000   0.000   0.000  -0.000   0.000
  0.022   0.000  -0.028   0.000  -0.000   0.000  -8.279   0.000   0.000   0.000   0.000   0.000   9.900   0.000  -0.000   0.000
  0.000   0.000  -0.000   0.000   0.000   0.000   0.000   0.000  -8.217   0.000  -0.000   0.000  -0.000   0.000   9.817   0.000
  0.000   0.000  -0.000   0.000   9.817   0.000   0.000   0.000  -0.000   0.000 -11.563   0.000  -0.000   0.000   0.000   0.000
 -0.027   0.000   0.035   0.000   0.000   0.000   9.900   0.000  -0.000   0.000  -0.000   0.000 -11.674   0.000   0.000   0.000
 -0.000   0.000   0.000   0.000  -0.000   0.000  -0.000   0.000   9.817   0.000   0.000   0.000   0.000   0.000 -11.563   0.000
 total augmentation occupancy for first ion, spin component:           1
  2.635   0.375   0.000  -0.076  -0.000   0.000  -0.031  -0.000
  0.375   0.076   0.000  -0.070  -0.000   0.000  -0.016  -0.000
  0.000   0.000   2.119  -0.000   0.000   0.231  -0.000   0.000
 -0.076  -0.070  -0.000   2.234   0.000  -0.000   0.313   0.000
 -0.000  -0.000   0.000   0.000   2.119   0.000   0.000   0.231
  0.000   0.000   0.231  -0.000   0.000   0.028  -0.000   0.000
 -0.031  -0.016  -0.000   0.313   0.000  -0.000   0.048   0.000
 -0.000  -0.000   0.000   0.000   0.231   0.000   0.000   0.028


------------------------ aborting loop because EDIFF is reached ----------------------------------------


    CHARGE:  cpu time    0.37: real time    0.37
    FORLOC:  cpu time    0.04: real time    0.04
    FORNL :  cpu time    3.06: real time    3.07
    STRESS:  cpu time    4.16: real time    4.16
    FORCOR:  cpu time    0.13: real time    0.13
    FORHAR:  cpu time    0.06: real time    0.06
    MIXING:  cpu time    0.00: real time    0.00
    OFIELD:  cpu time    0.00: real time    0.00

  FORCE on cell =-STRESS in cart. coord.  units (eV):
  Direction    XX          YY          ZZ          XY          YZ          ZX
  --------------------------------------------------------------------------------------
  Alpha Z   129.83631   129.83631   129.83631
  Ewald   14796.73065 14796.73099-17375.31846    -0.00003    -0.00000    -0.00015
  Hartree 16646.51254 16646.51245-15685.33048    -0.00000    -0.00000     0.00004
  E(xc)    -412.98020  -412.98022  -412.97490    -0.00000     0.00000    -0.00000
  Local  -32666.77545-32666.77492 31847.13305    -0.00019    -0.00000     0.00005
  n-local   -60.07005   -75.24656   -60.34760     3.09836    -1.33209     4.72784
  augment    60.65348    60.65323    58.75265     0.00018     0.00000     0.00000
  Kinetic  1518.61737  1496.12704  1476.61156    -1.23784    -0.54224     1.02964
  Fock        0.00000     0.00000     0.00000     0.00000     0.00000     0.00000
  -------------------------------------------------------------------------------------
  Total      -6.30852    -6.30852   -21.63788     0.00000     0.00000    -0.00000
  in kB     -31.09604   -31.09602  -106.65765     0.00000     0.00000    -0.00000
  external pressure =      -56.28 kB  Pullay stress =        0.00 kB


 VOLUME and BASIS-vectors are now :
 -----------------------------------------------------------------------------
  energy-cutoff  :      520.00
  volume of cell :      325.04
      direct lattice vectors                 reciprocal lattice vectors
     2.600457673 -1.501374484  0.000000000     0.384547693  0.000000000 -0.000000000
     0.000000000  3.002748968  0.000000000     0.192273847  0.333028172 -0.000000000
     0.000000000 -0.000000000 41.625971782     0.000000000  0.000000000  0.024023463

  length of vectors
     3.002749648  3.002748968 41.625971782     0.384547693  0.384547781  0.024023463


 FORCES acting on ions
    electron-ion (+dipol)            ewald-force                    non-local-force                 convergence-correction
 -----------------------------------------------------------------------------------------------
   0.215E-05 -.424E-06 0.123E+04   0.233E-04 -.259E-04 -.122E+04   -.152E-15 0.313E-16 -.888E+01   0.293E-09 -.498E-09 -.112E-01
   0.106E-02 -.184E-02 0.961E+03   0.554E-04 -.949E-04 -.961E+03   0.625E-18 0.852E-18 0.391E-01   0.202E-08 -.356E-08 -.823E-02
   -.384E-08 0.337E-09 0.411E+03   0.374E-07 -.407E-07 -.411E+03   -.169E-18 0.210E-19 -.100E-01   0.229E-09 -.316E-09 0.156E-02
   0.107E-02 -.185E-02 0.137E+03   0.540E-04 -.936E-04 -.137E+03   0.292E-18 -.374E-19 0.173E-01   -.139E-08 0.240E-08 0.973E-03
   0.362E-08 -.414E-09 -.411E+03   -.469E-07 0.515E-07 0.411E+03   0.235E-18 -.344E-19 0.139E-01   -.229E-09 0.315E-09 -.956E-03
   0.107E-02 -.185E-02 -.686E+03   0.541E-04 -.938E-04 0.686E+03   0.359E-18 -.696E-19 0.216E-01   0.136E-09 -.255E-09 0.298E-02
   -.215E-05 0.424E-06 -.123E+04   -.232E-04 0.259E-04 0.122E+04   0.150E-15 -.244E-16 0.888E+01   -.263E-09 0.450E-09 0.125E-01
   -.107E-02 0.185E-02 0.686E+03   -.541E-04 0.938E-04 -.686E+03   -.394E-18 0.301E-19 -.245E-01   0.185E-09 -.296E-09 -.168E-02
   -.107E-02 0.185E-02 -.137E+03   -.540E-04 0.936E-04 0.137E+03   -.164E-18 0.227E-19 -.102E-01   0.130E-08 -.226E-08 -.102E-02
   -.106E-02 0.184E-02 -.961E+03   -.554E-04 0.949E-04 0.961E+03   -.118E-17 -.416E-18 -.447E-01   -.222E-08 0.390E-08 0.963E-02
   0.353E-07 -.343E-07 0.274E+03   -.677E-07 0.763E-07 -.274E+03   0.531E-19 0.505E-19 0.926E-02   0.261E-10 -.231E-10 -.159E-02
   0.670E-08 -.165E-07 -.363E-02   0.976E-08 -.109E-07 0.266E-02   0.629E-20 -.268E-19 -.776E-03   -.278E-11 0.438E-11 -.163E-04
   -.920E-08 -.304E-08 -.274E+03   0.523E-07 -.590E-07 0.274E+03   -.171E-18 0.112E-18 -.788E-02   -.992E-11 -.335E-11 0.206E-02
   0.463E-04 -.776E-04 0.369E+03   -.516E-04 0.855E-04 -.370E+03   0.112E-17 0.104E-16 0.901E-01   0.120E-09 -.210E-09 -.345E-02
   0.417E-04 -.722E-04 0.914E+02   -.467E-04 0.809E-04 -.914E+02   0.558E-20 -.334E-20 -.125E-03   0.228E-11 -.507E-11 0.511E-03
   0.417E-04 -.723E-04 -.183E+03   -.467E-04 0.810E-04 0.183E+03   -.254E-19 0.363E-20 -.906E-02   0.293E-10 -.576E-10 0.222E-03
   -.417E-04 0.722E-04 0.183E+03   0.467E-04 -.810E-04 -.183E+03   0.527E-19 -.220E-18 0.912E-02   -.286E-10 0.554E-10 0.111E-03
   -.417E-04 0.722E-04 -.914E+02   0.467E-04 -.809E-04 0.914E+02   -.241E-19 0.532E-21 -.133E-02   0.564E-11 -.100E-10 -.428E-03
   -.463E-04 0.777E-04 -.369E+03   0.516E-04 -.855E-04 0.370E+03   -.632E-17 -.690E-17 -.886E-01   -.986E-10 0.176E-09 0.388E-02
   -.166E-09 0.311E-09 0.199E-01   -.181E-09 0.174E-09 -.188E-01   -.611E-21 -.330E-20 -.218E-03   0.420E-13 0.713E-13 -.895E-03
   -.352E-06 -.272E-07 0.684E+03   0.162E-05 -.145E-05 -.679E+03   -.848E-16 0.438E-16 -.551E+01   0.421E-11 -.488E-11 -.481E-02
   0.149E-04 -.255E-04 0.446E+03   -.186E-05 0.289E-05 -.446E+03   0.273E-18 -.278E-16 0.973E-01   -.285E-11 0.796E-11 -.301E-02
   -.142E-04 0.246E-04 0.211E+03   0.183E-05 -.288E-05 -.211E+03   0.637E-18 -.105E-16 0.227E+00   0.182E-11 -.254E-11 -.185E-02
   0.352E-06 0.276E-07 -.684E+03   -.162E-05 0.145E-05 0.679E+03   0.848E-16 0.117E-16 0.552E+01   -.425E-11 0.422E-11 0.523E-02
   0.142E-04 -.246E-04 -.211E+03   -.183E-05 0.288E-05 0.211E+03   0.630E-17 0.140E-16 -.227E+00   -.473E-11 0.691E-11 0.586E-03
   -.149E-04 0.255E-04 -.446E+03   0.186E-05 -.289E-05 0.446E+03   -.280E-16 0.389E-19 -.972E-01   0.561E-11 -.118E-10 0.276E-02
 -----------------------------------------------------------------------------------------------
   0.682E-07 -.115E-06 -.670E-02   -.455E-13 0.119E-13 -.330E-11   -.283E-16 0.419E-16 0.273E-02   0.106E-09 -.182E-09 0.382E-02
 
 
 POSITION                                       TOTAL-FORCE (eV/Angst)
 -----------------------------------------------------------------------------------
      0.00000     -0.00000     10.59184         0.000000      0.000000      0.002251
      0.86682      1.50138     13.02785         0.000000      0.000000      0.005345
      0.00000     -0.00000     18.09486        -0.000000      0.000000     -0.004938
      0.86682      1.50138     20.62876         0.000000     -0.000000      0.009780
      0.00000     -0.00000     25.69867         0.000000     -0.000000      0.006886
      0.86682      1.50138     28.23205         0.000000     -0.000000      0.013475
      0.00000     -0.00000     33.20177        -0.000000      0.000000     -0.003982
      1.73364     -0.00000     15.56161        -0.000000     -0.000000     -0.015109
      1.73364     -0.00000     23.16473        -0.000000     -0.000000     -0.006263
      1.73364     -0.00000     30.76584        -0.000000      0.000000     -0.008351
      0.00000     -0.00000     14.29399         0.000000     -0.000000      0.018680
      0.00000     -0.00000     21.89685        -0.000000      0.000000     -0.001761
      0.00000     -0.00000     29.49952        -0.000000      0.000000     -0.015995
      1.73364     -0.00000     11.75962        -0.000000      0.000000     -0.005574
      1.73364     -0.00000     19.36187        -0.000000      0.000000     -0.000096
      1.73364     -0.00000     26.96639        -0.000000      0.000000     -0.019376
      0.86682      1.50138     16.82721         0.000000     -0.000000      0.019308
      0.86682      1.50138     24.43183        -0.000000      0.000000     -0.003200
      0.86682      1.50138     32.03386         0.000000     -0.000000      0.008383
      0.00000     -0.00000      1.08394        -0.000000      0.000000      0.000012
      0.00000     -0.00000      8.84976         0.000000      0.000000      0.003530
      1.73364     -0.00000      6.30619         0.000000     -0.000000      0.006560
      0.86682      1.50138      3.62024         0.000000      0.000000      0.004478
      0.00000     -0.00000     34.94381        -0.000000      0.000000     -0.003008
      1.73364     -0.00000     40.17354        -0.000000      0.000000     -0.004455
      0.86682      1.50138     37.48745        -0.000000      0.000000     -0.006578
 -----------------------------------------------------------------------------------
    total drift:                                0.000000     -0.000000     -0.000154


--------------------------------------------------------------------------------------------------------



  FREE ENERGIE OF THE ION-ELECTRON SYSTEM (eV)
  ---------------------------------------------------
  free  energy   TOTEN  =      -140.83670697 eV

  energy  without entropy=     -140.83290833  energy(sigma->0) =     -140.83480765
 
 d Force = 0.5555845E-05[ 0.220E-05, 0.891E-05]  d Energy = 0.4312065E-05 0.124E-05
 d Force = 0.2503047E+01[ 0.250E+01, 0.250E+01]  d Ewald  = 0.2503047E+01-0.657E-09


--------------------------------------------------------------------------------------------------------


    POTLOK:  cpu time    0.21: real time    0.21


--------------------------------------------------------------------------------------------------------




--------------------------------------------------------------------------------------------------------


  
 reached required accuracy - stopping structural energy minimisation
     LOOP+:  cpu time   32.06: real time   32.11
    4ORBIT:  cpu time    0.00: real time    0.00

 total amount of memory used by VASP on root node   147392. kBytes
========================================================================

   base      :      30000. kBytes
   nonl-proj :      15468. kBytes
   fftplans  :      55171. kBytes
   grid      :      22118. kBytes
   one-center:         56. kBytes
   wavefun   :      24579. kBytes
 
  
  
 General timing and accounting informations for this job:
 ========================================================
  
                  Total CPU time used (sec):     2041.238
                            User time (sec):     2015.527
                          System time (sec):       25.711
                         Elapsed time (sec):     2044.445
  
                   Maximum memory used (kb):      255300.
                   Average memory used (kb):           0.
  
                          Minor page faults:       382431
                          Major page faults:            0
                 Voluntary context switches:          235
