       N       E                     dE             d eps       ncg     rms          rms(c)
DAV:   1     0.615839837539E+03    0.61584E+03   -0.39992E+04477010   0.124E+03
DAV:   2    -0.370243603510E+02   -0.65286E+03   -0.61549E+03627855   0.255E+02
DAV:   3    -0.134236702498E+03   -0.97212E+02   -0.94566E+02568980   0.100E+02
DAV:   4    -0.137386268016E+03   -0.31496E+01   -0.31350E+01564170   0.201E+01
DAV:   5    -0.137497519403E+03   -0.11125E+00   -0.11131E+00649140   0.345E+00
DAV:   6    -0.137500389005E+03   -0.28696E-02   -0.28747E-02624870   0.551E-01
DAV:   7    -0.137500529487E+03   -0.14048E-03   -0.14081E-03676405   0.104E-01
DAV:   8    -0.137500534055E+03   -0.45680E-05   -0.45744E-05489640   0.170E-02
   1 F= -.13750053E+03 E0= -.13750053E+03  d E =0.000000E+00
