       N       E                     dE             d eps       ncg     rms          rms(c)
DAV:   1     0.561355043973E+03    0.56136E+03   -0.48313E+04  2888   0.137E+03
DAV:   2    -0.107422572546E+03   -0.66878E+03   -0.63762E+03  3688   0.267E+02
DAV:   3    -0.167865822050E+03   -0.60443E+02   -0.60094E+02  3312   0.874E+01
DAV:   4    -0.168660616619E+03   -0.79479E+00   -0.79298E+00  3280   0.108E+01
DAV:   5    -0.168672762853E+03   -0.12146E-01   -0.12138E-01  3448   0.130E+00    0.239E+01
DAV:   6    -0.151851535538E+03    0.16821E+02   -0.97974E+01  3360   0.330E+01    0.831E+00
DAV:   7    -0.151705768995E+03    0.14577E+00   -0.27037E+00  3256   0.644E+00    0.500E+00
DAV:   8    -0.151622762895E+03    0.83006E-01   -0.84900E-01  3280   0.449E+00    0.128E+00
DAV:   9    -0.151584482030E+03    0.38281E-01   -0.17719E-01  3212   0.170E+00    0.540E-01
DAV:  10    -0.151588526303E+03   -0.40443E-02   -0.89408E-02  3132   0.116E+00    0.389E-01
DAV:  11    -0.151585558971E+03    0.29673E-02   -0.12230E-02  3592   0.480E-01    0.224E-01
DAV:  12    -0.151585858049E+03   -0.29908E-03   -0.10361E-02  3316   0.429E-01    0.144E-01
DAV:  13    -0.151585485700E+03    0.37235E-03   -0.14330E-03  4248   0.253E-01    0.567E-02
DAV:  14    -0.151585415752E+03    0.69948E-04   -0.75229E-04  3352   0.136E-01    0.166E-02
DAV:  15    -0.151585302374E+03    0.11338E-03   -0.10020E-04  3600   0.982E-02    0.148E-02
DAV:  16    -0.151585232875E+03    0.69499E-04   -0.68735E-05  3192   0.852E-02    0.169E-02
DAV:  17    -0.151585172230E+03    0.60645E-04   -0.98038E-05  3840   0.105E-01    0.761E-03
DAV:  18    -0.151585128239E+03    0.43991E-04   -0.95980E-05  3872   0.136E-01    0.105E-02
DAV:  19    -0.151585106959E+03    0.21281E-04   -0.86172E-05  3368   0.105E-01    0.601E-03
DAV:  20    -0.151585094293E+03    0.12666E-04   -0.53145E-05  3200   0.866E-02    0.670E-03
DAV:  21    -0.151585083013E+03    0.11279E-04   -0.11723E-05  2112   0.807E-02    0.314E-03
DAV:  22    -0.151585077631E+03    0.53826E-05   -0.26033E-05  2624   0.112E-01
   1 F= -.15158508E+03 E0= -.15158170E+03  d E =-.151585E+03
       N       E                     dE             d eps       ncg     rms          rms(c)
DAV:   1    -0.151587962104E+03   -0.28791E-02   -0.24068E-02  2916   0.590E-01    0.594E-02
DAV:   2    -0.151587862905E+03    0.99200E-04   -0.24768E-03  3280   0.218E-01    0.513E-02
DAV:   3    -0.151587821198E+03    0.41706E-04   -0.43688E-04  3240   0.785E-02    0.412E-02
DAV:   4    -0.151587799428E+03    0.21770E-04   -0.69523E-05  3180   0.329E-02    0.258E-02
DAV:   5    -0.151587760005E+03    0.39423E-04   -0.92481E-05  3208   0.422E-02    0.100E-02
DAV:   6    -0.151587754202E+03    0.58036E-05   -0.33809E-05  2928   0.305E-02
   2 F= -.15158775E+03 E0= -.15158448E+03  d E =-.267657E-02
       N       E                     dE             d eps       ncg     rms          rms(c)
DAV:   1    -0.151588791804E+03   -0.10318E-02   -0.22643E-02  2900   0.575E-01    0.601E-02
DAV:   2    -0.151588711520E+03    0.80284E-04   -0.25483E-03  3272   0.217E-01    0.517E-02
DAV:   3    -0.151588663052E+03    0.48468E-04   -0.39588E-04  3280   0.769E-02    0.402E-02
DAV:   4    -0.151588642068E+03    0.20984E-04   -0.66106E-05  3172   0.322E-02    0.258E-02
DAV:   5    -0.151588589650E+03    0.52419E-04   -0.12991E-04  3236   0.578E-02    0.104E-02
DAV:   6    -0.151588582551E+03    0.70991E-05   -0.37224E-05  3120   0.291E-02
   3 F= -.15158858E+03 E0= -.15158541E+03  d E =-.350492E-02
       N       E                     dE             d eps       ncg     rms          rms(c)
DAV:   1    -0.151589825289E+03   -0.12356E-02   -0.31763E-01  2856   0.240E+00    0.805E-02
DAV:   2    -0.151590529287E+03   -0.70400E-03   -0.86828E-03  3264   0.344E-01    0.502E-02
DAV:   3    -0.151590463057E+03    0.66230E-04   -0.13607E-04  3392   0.697E-02    0.344E-02
DAV:   4    -0.151590421518E+03    0.41540E-04   -0.91779E-05  3296   0.577E-02    0.172E-02
DAV:   5    -0.151590391450E+03    0.30067E-04   -0.30820E-05  2352   0.496E-02    0.807E-03
DAV:   6    -0.151590372241E+03    0.19209E-04   -0.30006E-05  2624   0.452E-02    0.592E-03
DAV:   7    -0.151590357027E+03    0.15215E-04   -0.10144E-05  2112   0.369E-02    0.562E-03
DAV:   8    -0.151590322402E+03    0.34625E-04   -0.26295E-05  2464   0.921E-02    0.391E-03
DAV:   9    -0.151590314256E+03    0.81457E-05   -0.40994E-05  2888   0.525E-02
   4 F= -.15159031E+03 E0= -.15158726E+03  d E =-.173171E-02
       N       E                     dE             d eps       ncg     rms          rms(c)
DAV:   1    -0.151590095865E+03    0.22654E-03   -0.81057E-01  2856   0.382E+00    0.124E-01
DAV:   2    -0.151591916828E+03   -0.18210E-02   -0.21911E-02  3264   0.540E-01    0.789E-02
DAV:   3    -0.151591776269E+03    0.14056E-03   -0.30156E-04  3336   0.970E-02    0.550E-02
DAV:   4    -0.151591693192E+03    0.83077E-04   -0.23113E-04  3320   0.858E-02    0.260E-02
DAV:   5    -0.151591652726E+03    0.40465E-04   -0.88767E-05  3320   0.619E-02    0.120E-02
DAV:   6    -0.151591634011E+03    0.18715E-04   -0.48448E-05  3136   0.454E-02    0.828E-03
DAV:   7    -0.151591616394E+03    0.17617E-04   -0.84690E-06  2088   0.328E-02    0.636E-03
DAV:   8    -0.151591590183E+03    0.26211E-04   -0.11459E-05  2224   0.548E-02    0.365E-03
DAV:   9    -0.151591563446E+03    0.26737E-04   -0.41025E-05  3060   0.885E-02    0.672E-03
DAV:  10    -0.151591551742E+03    0.11704E-04   -0.44708E-05  3144   0.787E-02    0.416E-03
DAV:  11    -0.151591552031E+03   -0.28834E-06   -0.43849E-05  2812   0.427E-02
   5 F= -.15159155E+03 E0= -.15158867E+03  d E =-.296948E-02
       N       E                     dE             d eps       ncg     rms          rms(c)
DAV:   1    -0.151592320970E+03   -0.76923E-03   -0.22095E-01  2884   0.198E+00    0.636E-02
DAV:   2    -0.151592827827E+03   -0.50686E-03   -0.56651E-03  3180   0.273E-01    0.355E-02
DAV:   3    -0.151592793794E+03    0.34033E-04   -0.57328E-05  3136   0.426E-02    0.242E-02
DAV:   4    -0.151592766771E+03    0.27023E-04   -0.39551E-05  3016   0.468E-02    0.945E-03
DAV:   5    -0.151592759184E+03    0.75875E-05   -0.38286E-05  2980   0.386E-02    0.578E-03
DAV:   6    -0.151592757542E+03    0.16415E-05   -0.13261E-05  1912   0.186E-02
   6 F= -.15159276E+03 E0= -.15158994E+03  d E =-.120551E-02
       N       E                     dE             d eps       ncg     rms          rms(c)
DAV:   1    -0.151591333145E+03    0.14260E-02   -0.19883E+00  2872   0.595E+00    0.190E-01
DAV:   2    -0.151595959850E+03   -0.46267E-02   -0.51245E-02  3172   0.819E-01    0.107E-01
DAV:   3    -0.151595664129E+03    0.29572E-03   -0.50030E-04  3328   0.116E-01    0.722E-02
DAV:   4    -0.151595437768E+03    0.22636E-03   -0.34099E-04  3336   0.121E-01    0.289E-02
DAV:   5    -0.151595364003E+03    0.73765E-04   -0.28361E-04  3332   0.952E-02    0.150E-02
DAV:   6    -0.151595334499E+03    0.29503E-04   -0.90743E-05  3156   0.519E-02    0.984E-03
DAV:   7    -0.151595297481E+03    0.37018E-04   -0.16194E-05  2160   0.445E-02    0.845E-03
DAV:   8    -0.151595263606E+03    0.33875E-04   -0.27361E-05  2712   0.567E-02    0.643E-03
DAV:   9    -0.151595221615E+03    0.41991E-04   -0.50625E-05  3112   0.916E-02    0.562E-03
DAV:  10    -0.151595207856E+03    0.13759E-04   -0.58571E-05  3256   0.700E-02    0.666E-03
DAV:  11    -0.151595200815E+03    0.70415E-05   -0.34718E-05  2796   0.566E-02
   7 F= -.15159520E+03 E0= -.15159256E+03  d E =-.364878E-02
       N       E                     dE             d eps       ncg     rms          rms(c)
DAV:   1    -0.151578564687E+03    0.16643E-01   -0.79525E+00  2896   0.120E+01    0.383E-01
DAV:   2    -0.151597551975E+03   -0.18987E-01   -0.20871E-01  3152   0.167E+00    0.225E-01
DAV:   3    -0.151596327658E+03    0.12243E-02   -0.19872E-03  3328   0.233E-01    0.147E-01
DAV:   4    -0.151595514695E+03    0.81296E-03   -0.14568E-03  3292   0.225E-01    0.602E-02
DAV:   5    -0.151595265420E+03    0.24928E-03   -0.95671E-04  3304   0.166E-01    0.259E-02
DAV:   6    -0.151595138508E+03    0.12691E-03   -0.26171E-04  3272   0.961E-02    0.169E-02
DAV:   7    -0.151595025931E+03    0.11258E-03   -0.51461E-05  2744   0.711E-02    0.134E-02
DAV:   8    -0.151594864179E+03    0.16175E-03   -0.10009E-04  3956   0.128E-01    0.107E-02
DAV:   9    -0.151594674932E+03    0.18925E-03   -0.18063E-04  3952   0.191E-01    0.131E-02
DAV:  10    -0.151594580889E+03    0.94043E-04   -0.19854E-04  3952   0.178E-01    0.125E-02
DAV:  11    -0.151594534632E+03    0.46257E-04   -0.16429E-04  3796   0.152E-01    0.104E-02
DAV:  12    -0.151594508509E+03    0.26123E-04   -0.10940E-04  3400   0.103E-01    0.962E-03
DAV:  13    -0.151594478286E+03    0.30223E-04   -0.41798E-05  3152   0.104E-01    0.812E-03
DAV:  14    -0.151594461185E+03    0.17101E-04   -0.36940E-05  2788   0.104E-01    0.104E-02
DAV:  15    -0.151594451970E+03    0.92146E-05   -0.38458E-05  2940   0.102E-01
   8 F= -.15159445E+03 E0= -.15159209E+03  d E =-.289994E-02
       N       E                     dE             d eps       ncg     rms          rms(c)
DAV:   1    -0.151590234409E+03    0.42268E-02   -0.27418E+00  2896   0.703E+00    0.229E-01
DAV:   2    -0.151596781272E+03   -0.65469E-02   -0.72072E-02  3148   0.983E-01    0.122E-01
DAV:   3    -0.151596422282E+03    0.35899E-03   -0.68744E-04  3336   0.128E-01    0.869E-02
DAV:   4    -0.151596116630E+03    0.30565E-03   -0.53062E-04  3412   0.150E-01    0.327E-02
DAV:   5    -0.151596041243E+03    0.75387E-04   -0.38820E-04  3320   0.103E-01    0.213E-02
DAV:   6    -0.151596003011E+03    0.38232E-04   -0.13475E-04  3240   0.593E-02    0.120E-02
DAV:   7    -0.151595962470E+03    0.40542E-04   -0.25596E-05  2272   0.489E-02    0.141E-02
DAV:   8    -0.151595927850E+03    0.34620E-04   -0.26233E-05  2696   0.532E-02    0.874E-03
DAV:   9    -0.151595878396E+03    0.49454E-04   -0.47292E-05  3160   0.879E-02    0.582E-03
DAV:  10    -0.151595847618E+03    0.30778E-04   -0.58427E-05  3392   0.916E-02    0.708E-03
DAV:  11    -0.151595836372E+03    0.11246E-04   -0.52986E-05  3068   0.671E-02    0.781E-03
DAV:  12    -0.151595828798E+03    0.75742E-05   -0.18092E-05  2280   0.486E-02
   9 F= -.15159583E+03 E0= -.15159331E+03  d E =-.427677E-02
       N       E                     dE             d eps       ncg     rms          rms(c)
DAV:   1    -0.151596389790E+03   -0.55342E-03   -0.48398E-01  2896   0.303E+00    0.908E-02
DAV:   2    -0.151597452615E+03   -0.10628E-02   -0.11817E-02  3200   0.417E-01    0.518E-02
DAV:   3    -0.151597395499E+03    0.57116E-04   -0.13146E-04  3344   0.597E-02    0.352E-02
DAV:   4    -0.151597354408E+03    0.41090E-04   -0.98754E-05  3316   0.656E-02    0.137E-02
DAV:   5    -0.151597347673E+03    0.67356E-05   -0.68538E-05  3168   0.467E-02    0.990E-03
DAV:   6    -0.151597345724E+03    0.19491E-05   -0.21214E-05  1996   0.230E-02
  10 F= -.15159735E+03 E0= -.15159490E+03  d E =-.151693E-02
       N       E                     dE             d eps       ncg     rms          rms(c)
DAV:   1    -0.151590987256E+03    0.63604E-02   -0.43459E+00  2888   0.911E+00    0.275E-01
DAV:   2    -0.151600546814E+03   -0.95596E-02   -0.10632E-01  3212   0.126E+00    0.157E-01
DAV:   3    -0.151600038572E+03    0.50824E-03   -0.11654E-03  3344   0.175E-01    0.105E-01
DAV:   4    -0.151599729946E+03    0.30863E-03   -0.97057E-04  3348   0.184E-01    0.404E-02
DAV:   5    -0.151599696180E+03    0.33766E-04   -0.56966E-04  3240   0.116E-01    0.273E-02
DAV:   6    -0.151599680641E+03    0.15539E-04   -0.11472E-04  3252   0.528E-02    0.169E-02
DAV:   7    -0.151599657045E+03    0.23596E-04   -0.16855E-05  2080   0.386E-02    0.869E-03
DAV:   8    -0.151599641035E+03    0.16010E-04   -0.44311E-06  2000   0.359E-02    0.642E-03
DAV:   9    -0.151599597429E+03    0.43606E-04   -0.31541E-05  2700   0.119E-01    0.825E-03
DAV:  10    -0.151599590049E+03    0.73801E-05   -0.44190E-05  2776   0.329E-02
  11 F= -.15159959E+03 E0= -.15159734E+03  d E =-.376125E-02
       N       E                     dE             d eps       ncg     rms          rms(c)
DAV:   1    -0.151600651187E+03   -0.10538E-02   -0.10103E+00  2952   0.428E+00    0.123E-01
DAV:   2    -0.151602300401E+03   -0.16492E-02   -0.21111E-02  3320   0.580E-01    0.749E-02
DAV:   3    -0.151602107544E+03    0.19286E-03   -0.48595E-04  3348   0.103E-01    0.493E-02
DAV:   4    -0.151601959994E+03    0.14755E-03   -0.22794E-04  3352   0.807E-02    0.236E-02
DAV:   5    -0.151601888434E+03    0.71561E-04   -0.18532E-04  3436   0.841E-02    0.134E-02
DAV:   6    -0.151601871650E+03    0.16783E-04   -0.98435E-05  3332   0.534E-02    0.139E-02
DAV:   7    -0.151601860845E+03    0.10805E-04   -0.16912E-05  2352   0.243E-02    0.103E-02
DAV:   8    -0.151601834592E+03    0.26253E-04   -0.18117E-05  2388   0.551E-02    0.452E-03
DAV:   9    -0.151601826982E+03    0.76101E-05   -0.28922E-05  2672   0.346E-02
  12 F= -.15160183E+03 E0= -.15159961E+03  d E =-.223693E-02
       N       E                     dE             d eps       ncg     rms          rms(c)
DAV:   1    -0.151600092623E+03    0.17420E-02   -0.14117E+00  2960   0.505E+00    0.148E-01
DAV:   2    -0.151602430372E+03   -0.23377E-02   -0.29706E-02  3336   0.685E-01    0.889E-02
DAV:   3    -0.151602180736E+03    0.24964E-03   -0.73518E-04  3340   0.126E-01    0.590E-02
DAV:   4    -0.151602000980E+03    0.17976E-03   -0.28175E-04  3372   0.853E-02    0.296E-02
DAV:   5    -0.151601899268E+03    0.10171E-03   -0.23938E-04  3396   0.101E-01    0.159E-02
DAV:   6    -0.151601884542E+03    0.14726E-04   -0.14885E-04  3364   0.634E-02    0.161E-02
DAV:   7    -0.151601872725E+03    0.11817E-04   -0.30260E-05  2784   0.320E-02    0.118E-02
DAV:   8    -0.151601849081E+03    0.23643E-04   -0.16403E-05  2364   0.539E-02    0.575E-03
DAV:   9    -0.151601842167E+03    0.69146E-05   -0.32857E-05  2744   0.361E-02
  13 F= -.15160184E+03 E0= -.15159966E+03  d E =-.225212E-02
       N       E                     dE             d eps       ncg     rms          rms(c)
DAV:   1    -0.151601802053E+03    0.47029E-04   -0.31392E-01  2960   0.236E+00    0.701E-02
DAV:   2    -0.151602307814E+03   -0.50576E-03   -0.64065E-03  3344   0.315E-01    0.401E-02
DAV:   3    -0.151602251226E+03    0.56587E-04   -0.14984E-04  3332   0.624E-02    0.266E-02
DAV:   4    -0.151602210741E+03    0.40485E-04   -0.58966E-05  3240   0.474E-02    0.134E-02
DAV:   5    -0.151602189889E+03    0.20852E-04   -0.57956E-05  3108   0.534E-02    0.676E-03
DAV:   6    -0.151602188603E+03    0.12860E-05   -0.38443E-05  2980   0.314E-02
  14 F= -.15160219E+03 E0= -.15159999E+03  d E =-.259855E-02
       N       E                     dE             d eps       ncg     rms          rms(c)
DAV:   1    -0.151600756306E+03    0.14336E-02   -0.18504E+00  2888   0.586E+00    0.165E-01
DAV:   2    -0.151604464039E+03   -0.37077E-02   -0.39894E-02  3176   0.783E-01    0.978E-02
DAV:   3    -0.151604245854E+03    0.21818E-03   -0.31005E-04  3396   0.945E-02    0.664E-02
DAV:   4    -0.151604069061E+03    0.17679E-03   -0.71499E-04  3352   0.170E-01    0.188E-02
DAV:   5    -0.151604090367E+03   -0.21306E-04   -0.33006E-04  3160   0.712E-02    0.270E-02
DAV:   6    -0.151604086241E+03    0.41260E-05   -0.84656E-06  1732   0.129E-02
  15 F= -.15160409E+03 E0= -.15160190E+03  d E =-.189764E-02
       N       E                     dE             d eps       ncg     rms          rms(c)
DAV:   1    -0.151597559867E+03    0.65305E-02   -0.42006E+00  2888   0.885E+00    0.255E-01
DAV:   2    -0.151606076768E+03   -0.85169E-02   -0.91735E-02  3176   0.119E+00    0.148E-01
DAV:   3    -0.151605566822E+03    0.50995E-03   -0.73922E-04  3376   0.150E-01    0.996E-02
DAV:   4    -0.151605152981E+03    0.41384E-03   -0.16048E-03  3444   0.265E-01    0.288E-02
DAV:   5    -0.151605195370E+03   -0.42390E-04   -0.80845E-04  3192   0.112E-01    0.421E-02
DAV:   6    -0.151605181729E+03    0.13641E-04   -0.23403E-05  2188   0.215E-02    0.345E-02
DAV:   7    -0.151605141314E+03    0.40415E-04   -0.12905E-04  3168   0.471E-02    0.134E-02
DAV:   8    -0.151605116211E+03    0.25102E-04   -0.69690E-05  3248   0.521E-02    0.235E-02
DAV:   9    -0.151605088621E+03    0.27590E-04   -0.36438E-05  2836   0.537E-02    0.221E-02
DAV:  10    -0.151605064182E+03    0.24439E-04   -0.19633E-04  3476   0.934E-02    0.190E-02
DAV:  11    -0.151605050324E+03    0.13858E-04   -0.54322E-05  3092   0.515E-02    0.209E-02
DAV:  12    -0.151605029303E+03    0.21021E-04   -0.58660E-06  2056   0.442E-02    0.171E-02
DAV:  13    -0.151604990783E+03    0.38519E-04   -0.64542E-05  3248   0.109E-01    0.724E-03
DAV:  14    -0.151604978334E+03    0.12449E-04   -0.49508E-05  3176   0.962E-02    0.560E-03
DAV:  15    -0.151604981707E+03   -0.33728E-05   -0.75545E-05  2832   0.416E-02
  16 F= -.15160498E+03 E0= -.15160283E+03  d E =-.279310E-02
       N       E                     dE             d eps       ncg     rms          rms(c)
DAV:   1    -0.151604408719E+03    0.56961E-03   -0.12759E+00  2872   0.501E+00    0.153E-01
DAV:   2    -0.151607136610E+03   -0.27279E-02   -0.30670E-02  3256   0.713E-01    0.804E-02
DAV:   3    -0.151607038721E+03    0.97890E-04   -0.67648E-04  3388   0.111E-01    0.624E-02
DAV:   4    -0.151606964070E+03    0.74651E-04   -0.16968E-04  3244   0.555E-02    0.328E-02
DAV:   5    -0.151606922422E+03    0.41648E-04   -0.16474E-04  3288   0.671E-02    0.211E-02
DAV:   6    -0.151606916770E+03    0.56522E-05   -0.72619E-05  3280   0.473E-02
  17 F= -.15160692E+03 E0= -.15160478E+03  d E =-.193506E-02
       N       E                     dE             d eps       ncg     rms          rms(c)
DAV:   1    -0.151604606857E+03    0.23156E-02   -0.15079E+00  2888   0.545E+00    0.168E-01
DAV:   2    -0.151607864176E+03   -0.32573E-02   -0.36453E-02  3248   0.774E-01    0.874E-02
DAV:   3    -0.151607733443E+03    0.13073E-03   -0.71607E-04  3388   0.116E-01    0.673E-02
DAV:   4    -0.151607634749E+03    0.98695E-04   -0.22566E-04  3276   0.613E-02    0.332E-02
DAV:   5    -0.151607584027E+03    0.50722E-04   -0.15598E-04  3288   0.735E-02    0.226E-02
DAV:   6    -0.151607572626E+03    0.11400E-04   -0.95304E-05  3352   0.630E-02    0.128E-02
DAV:   7    -0.151607572451E+03    0.17496E-06   -0.67149E-05  3080   0.387E-02
  18 F= -.15160757E+03 E0= -.15160546E+03  d E =-.259074E-02
       N       E                     dE             d eps       ncg     rms          rms(c)
DAV:   1    -0.151607552758E+03    0.19868E-04   -0.84603E-01  2880   0.405E+00    0.121E-01
DAV:   2    -0.151609359461E+03   -0.18067E-02   -0.19495E-02  3172   0.560E-01    0.654E-02
DAV:   3    -0.151609278621E+03    0.80840E-04   -0.25087E-04  3388   0.723E-02    0.463E-02
DAV:   4    -0.151609222777E+03    0.55844E-04   -0.26434E-04  3272   0.770E-02    0.202E-02
DAV:   5    -0.151609213796E+03    0.89817E-05   -0.64249E-05  3172   0.431E-02    0.201E-02
DAV:   6    -0.151609205504E+03    0.82914E-05   -0.44676E-05  2756   0.381E-02
  19 F= -.15160921E+03 E0= -.15160708E+03  d E =-.163305E-02
       N       E                     dE             d eps       ncg     rms          rms(c)
DAV:   1    -0.151602911815E+03    0.63020E-02   -0.38805E+00  2880   0.868E+00    0.255E-01
DAV:   2    -0.151611154992E+03   -0.82432E-02   -0.88908E-02  3176   0.120E+00    0.143E-01
DAV:   3    -0.151610771133E+03    0.38386E-03   -0.10836E-03  3396   0.150E-01    0.100E-01
DAV:   4    -0.151610513859E+03    0.25727E-03   -0.13043E-03  3276   0.174E-01    0.425E-02
DAV:   5    -0.151610490346E+03    0.23514E-04   -0.34247E-04  3340   0.886E-02    0.425E-02
DAV:   6    -0.151610465418E+03    0.24928E-04   -0.16347E-04  3296   0.647E-02    0.207E-02
DAV:   7    -0.151610452368E+03    0.13049E-04   -0.50835E-05  2760   0.398E-02    0.121E-02
DAV:   8    -0.151610441472E+03    0.10896E-04   -0.17446E-05  2052   0.339E-02    0.947E-03
DAV:   9    -0.151610421070E+03    0.20402E-04   -0.94468E-06  2088   0.447E-02    0.610E-03
DAV:  10    -0.151610399048E+03    0.22022E-04   -0.15640E-05  2280   0.574E-02    0.724E-03
DAV:  11    -0.151610360128E+03    0.38920E-04   -0.60018E-05  3256   0.155E-01    0.146E-02
DAV:  12    -0.151610360329E+03   -0.20119E-06   -0.88902E-05  2972   0.524E-02
  20 F= -.15161036E+03 E0= -.15160820E+03  d E =-.278788E-02
       N       E                     dE             d eps       ncg     rms          rms(c)
DAV:   1    -0.151610291979E+03    0.68149E-04   -0.64046E-01  2896   0.351E+00    0.101E-01
DAV:   2    -0.151611641458E+03   -0.13495E-02   -0.14424E-02  3068   0.479E-01    0.579E-02
DAV:   3    -0.151611573295E+03    0.68163E-04   -0.13825E-04  3348   0.529E-02    0.396E-02
DAV:   4    -0.151611525879E+03    0.47416E-04   -0.16046E-04  3264   0.710E-02    0.128E-02
DAV:   5    -0.151611527227E+03   -0.13481E-05   -0.70721E-05  3012   0.336E-02    0.128E-02
DAV:   6    -0.151611525458E+03    0.17686E-05   -0.75302E-06  1660   0.122E-02
  21 F= -.15161153E+03 E0= -.15160935E+03  d E =-.116513E-02
       N       E                     dE             d eps       ncg     rms          rms(c)
DAV:   1    -0.151602454967E+03    0.90723E-02   -0.57583E+00  2896   0.105E+01    0.304E-01
DAV:   2    -0.151614798344E+03   -0.12343E-01   -0.13034E-01  3080   0.144E+00    0.173E-01
DAV:   3    -0.151614165757E+03    0.63259E-03   -0.10819E-03  3388   0.156E-01    0.116E-01
DAV:   4    -0.151613693888E+03    0.47187E-03   -0.16550E-03  3312   0.238E-01    0.337E-02
DAV:   5    -0.151613704260E+03   -0.10372E-04   -0.69879E-04  3200   0.110E-01    0.352E-02
DAV:   6    -0.151613684238E+03    0.20023E-04   -0.72522E-05  3148   0.348E-02    0.228E-02
DAV:   7    -0.151613649448E+03    0.34790E-04   -0.32858E-05  2744   0.341E-02    0.112E-02
DAV:   8    -0.151613609772E+03    0.39676E-04   -0.11445E-05  2128   0.501E-02    0.809E-03
DAV:   9    -0.151613545146E+03    0.64626E-04   -0.30468E-05  2788   0.107E-01    0.915E-03
DAV:  10    -0.151613472786E+03    0.72360E-04   -0.52905E-05  3224   0.140E-01    0.103E-02
DAV:  11    -0.151613387875E+03    0.84911E-04   -0.14312E-04  3940   0.249E-01    0.195E-02
DAV:  12    -0.151613361312E+03    0.26563E-04   -0.21584E-04  4000   0.233E-01    0.143E-02
DAV:  13    -0.151613389093E+03   -0.27781E-04   -0.33176E-04  2936   0.571E-02    0.153E-02
DAV:  14    -0.151613389726E+03   -0.63319E-06   -0.45449E-06  1724   0.821E-03
  22 F= -.15161339E+03 E0= -.15161119E+03  d E =-.302940E-02
       N       E                     dE             d eps       ncg     rms          rms(c)
DAV:   1    -0.151612976396E+03    0.41270E-03   -0.24535E-01  2936   0.217E+00    0.617E-02
DAV:   2    -0.151613504706E+03   -0.52831E-03   -0.56082E-03  3088   0.299E-01    0.345E-02
DAV:   3    -0.151613484285E+03    0.20421E-04   -0.63578E-05  3236   0.345E-02    0.243E-02
DAV:   4    -0.151613470053E+03    0.14232E-04   -0.37023E-05  2668   0.361E-02    0.104E-02
DAV:   5    -0.151613468396E+03    0.16569E-05   -0.25095E-05  2132   0.253E-02    0.662E-03
DAV:   6    -0.151613468064E+03    0.33238E-06   -0.54561E-06  1628   0.968E-03
  23 F= -.15161347E+03 E0= -.15161127E+03  d E =-.310773E-02
       N       E                     dE             d eps       ncg     rms          rms(c)
DAV:   1    -0.151614198034E+03   -0.72964E-03   -0.23444E-01  2896   0.213E+00    0.685E-02
DAV:   2    -0.151614711242E+03   -0.51321E-03   -0.59758E-03  3280   0.315E-01    0.440E-02
DAV:   3    -0.151614673442E+03    0.37800E-04   -0.10716E-04  3320   0.550E-02    0.329E-02
DAV:   4    -0.151614647403E+03    0.26039E-04   -0.12578E-04  3152   0.560E-02    0.133E-02
DAV:   5    -0.151614641655E+03    0.57481E-05   -0.32786E-05  2764   0.326E-02    0.116E-02
DAV:   6    -0.151614638402E+03    0.32530E-05   -0.17690E-05  2128   0.250E-02
  24 F= -.15161464E+03 E0= -.15161243E+03  d E =-.117034E-02
       N       E                     dE             d eps       ncg     rms          rms(c)
DAV:   1    -0.151614459043E+03    0.18261E-03   -0.36785E-01  2896   0.267E+00    0.855E-02
DAV:   2    -0.151615267982E+03   -0.80894E-03   -0.94739E-03  3280   0.398E-01    0.573E-02
DAV:   3    -0.151615203651E+03    0.64331E-04   -0.17770E-04  3336   0.719E-02    0.430E-02
DAV:   4    -0.151615156544E+03    0.47107E-04   -0.20714E-04  3168   0.717E-02    0.173E-02
DAV:   5    -0.151615143966E+03    0.12578E-04   -0.56084E-05  3104   0.455E-02    0.157E-02
DAV:   6    -0.151615136171E+03    0.77951E-05   -0.38824E-05  2660   0.393E-02
  25 F= -.15161514E+03 E0= -.15161293E+03  d E =-.166811E-02
       N       E                     dE             d eps       ncg     rms          rms(c)
DAV:   1    -0.151615523470E+03   -0.37950E-03   -0.78663E-02  3016   0.120E+00    0.383E-02
DAV:   2    -0.151615644327E+03   -0.12086E-03   -0.17705E-03  3296   0.173E-01    0.248E-02
DAV:   3    -0.151615624436E+03    0.19891E-04   -0.55848E-05  3172   0.339E-02    0.182E-02
DAV:   4    -0.151615608095E+03    0.16341E-04   -0.35776E-05  2832   0.312E-02    0.898E-03
DAV:   5    -0.151615595967E+03    0.12127E-04   -0.16780E-05  2072   0.299E-02    0.700E-03
DAV:   6    -0.151615587026E+03    0.89410E-05   -0.80792E-06  1952   0.300E-02
  26 F= -.15161559E+03 E0= -.15161337E+03  d E =-.450856E-03
       N       E                     dE             d eps       ncg     rms          rms(c)
DAV:   1    -0.151615626152E+03   -0.30185E-04   -0.61852E-02  3040   0.107E+00    0.341E-02
DAV:   2    -0.151615726723E+03   -0.10057E-03   -0.14796E-03  3336   0.159E-01    0.227E-02
DAV:   3    -0.151615707326E+03    0.19397E-04   -0.39043E-05  2948   0.300E-02    0.167E-02
DAV:   4    -0.151615682571E+03    0.24755E-04   -0.47026E-05  3024   0.414E-02    0.817E-03
DAV:   5    -0.151615669271E+03    0.13301E-04   -0.20535E-05  2080   0.333E-02    0.969E-03
DAV:   6    -0.151615657989E+03    0.11282E-04   -0.10485E-05  1884   0.318E-02    0.569E-03
DAV:   7    -0.151615635679E+03    0.22310E-04   -0.97558E-06  2148   0.579E-02    0.427E-03
DAV:   8    -0.151615616644E+03    0.19035E-04   -0.19371E-05  2444   0.628E-02    0.588E-03
DAV:   9    -0.151615603855E+03    0.12789E-04   -0.19204E-05  2400   0.532E-02    0.412E-03
DAV:  10    -0.151615576053E+03    0.27802E-04   -0.34764E-05  2752   0.162E-01    0.980E-03
DAV:  11    -0.151615578252E+03   -0.21997E-05   -0.84134E-05  2980   0.591E-02
  27 F= -.15161558E+03 E0= -.15161335E+03  d E =-.442082E-03
       N       E                     dE             d eps       ncg     rms          rms(c)
DAV:   1    -0.151615592547E+03   -0.16494E-04   -0.54714E-03  3096   0.317E-01    0.124E-02
DAV:   2    -0.151615598353E+03   -0.58066E-05   -0.12106E-04  3180   0.457E-02    0.620E-03
DAV:   3    -0.151615596716E+03    0.16377E-05   -0.46463E-06  1804   0.105E-02    0.424E-03
DAV:   4    -0.151615595661E+03    0.10544E-05   -0.23873E-06  1784   0.967E-03    0.240E-03
DAV:   5    -0.151615595029E+03    0.63246E-06   -0.23773E-06  1668   0.947E-03    0.156E-03
DAV:   6    -0.151615594898E+03    0.13080E-06   -0.10611E-06  1576   0.579E-03
  28 F= -.15161559E+03 E0= -.15161337E+03  d E =-.458727E-03
       N       E                     dE             d eps       ncg     rms          rms(c)
DAV:   1    -0.151615761602E+03   -0.16657E-03   -0.14334E-01  3024   0.164E+00    0.501E-02
DAV:   2    -0.151616037969E+03   -0.27637E-03   -0.34377E-03  3236   0.234E-01    0.303E-02
DAV:   3    -0.151616009317E+03    0.28651E-04   -0.10036E-04  3288   0.413E-02    0.214E-02
DAV:   4    -0.151615994952E+03    0.14366E-04   -0.25641E-05  2140   0.256E-02    0.129E-02
DAV:   5    -0.151615977393E+03    0.17558E-04   -0.26966E-05  2624   0.403E-02    0.491E-03
DAV:   6    -0.151615974520E+03    0.28729E-05   -0.16504E-05  1864   0.225E-02
  29 F= -.15161597E+03 E0= -.15161374E+03  d E =-.379622E-03
       N       E                     dE             d eps       ncg     rms          rms(c)
DAV:   1    -0.151615893831E+03    0.83562E-04   -0.11840E-01  3016   0.149E+00    0.445E-02
DAV:   2    -0.151616120679E+03   -0.22685E-03   -0.28897E-03  3268   0.215E-01    0.300E-02
DAV:   3    -0.151616089351E+03    0.31328E-04   -0.74840E-05  3136   0.389E-02    0.211E-02
DAV:   4    -0.151616069092E+03    0.20259E-04   -0.24318E-05  2148   0.284E-02    0.125E-02
DAV:   5    -0.151616041151E+03    0.27941E-04   -0.25418E-05  2552   0.488E-02    0.530E-03
DAV:   6    -0.151616027154E+03    0.13997E-04   -0.17329E-05  2244   0.410E-02    0.364E-03
DAV:   7    -0.151616003862E+03    0.23291E-04   -0.79627E-06  2108   0.649E-02    0.550E-03
DAV:   8    -0.151615978006E+03    0.25856E-04   -0.17209E-05  2396   0.763E-02    0.650E-03
DAV:   9    -0.151615935333E+03    0.42673E-04   -0.53614E-05  3252   0.165E-01    0.688E-03
DAV:  10    -0.151615928526E+03    0.68072E-05   -0.75627E-05  3308   0.105E-01
  30 F= -.15161593E+03 E0= -.15161370E+03  d E =-.333628E-03
       N       E                     dE             d eps       ncg     rms          rms(c)
DAV:   1    -0.151616079944E+03   -0.14461E-03   -0.52142E-02  2976   0.100E+00    0.345E-02
DAV:   2    -0.151616187292E+03   -0.10735E-03   -0.14383E-03  3204   0.149E-01    0.200E-02
DAV:   3    -0.151616177030E+03    0.10262E-04   -0.63139E-05  2804   0.284E-02    0.139E-02
DAV:   4    -0.151616173288E+03    0.37423E-05   -0.11081E-05  1808   0.146E-02    0.891E-03
DAV:   5    -0.151616168737E+03    0.45511E-05   -0.90871E-06  1912   0.201E-02    0.323E-03
DAV:   6    -0.151616167760E+03    0.97689E-06   -0.61383E-06  1688   0.128E-02
  31 F= -.15161617E+03 E0= -.15161394E+03  d E =-.239234E-03
       N       E                     dE             d eps       ncg     rms          rms(c)
DAV:   1    -0.151615971173E+03    0.19756E-03   -0.33914E-01  2944   0.255E+00    0.810E-02
DAV:   2    -0.151616684229E+03   -0.71306E-03   -0.89267E-03  3192   0.361E-01    0.446E-02
DAV:   3    -0.151616620344E+03    0.63885E-04   -0.30778E-04  3296   0.567E-02    0.306E-02
DAV:   4    -0.151616598876E+03    0.21467E-04   -0.48248E-05  2880   0.292E-02    0.203E-02
DAV:   5    -0.151616567995E+03    0.30881E-04   -0.46910E-05  3076   0.489E-02    0.571E-03
DAV:   6    -0.151616561729E+03    0.62664E-05   -0.27357E-05  2708   0.283E-02
  32 F= -.15161656E+03 E0= -.15161433E+03  d E =-.633203E-03
       N       E                     dE             d eps       ncg     rms          rms(c)
DAV:   1    -0.151614106072E+03    0.24619E-02   -0.13570E+00  2944   0.511E+00    0.160E-01
DAV:   2    -0.151616967457E+03   -0.28614E-02   -0.35155E-02  3184   0.721E-01    0.898E-02
DAV:   3    -0.151616714421E+03    0.25304E-03   -0.10593E-03  3304   0.110E-01    0.613E-02
DAV:   4    -0.151616620844E+03    0.93576E-04   -0.19950E-04  3328   0.614E-02    0.392E-02
DAV:   5    -0.151616497490E+03    0.12335E-03   -0.17157E-04  3324   0.959E-02    0.114E-02
DAV:   6    -0.151616464736E+03    0.32755E-04   -0.10731E-04  3336   0.610E-02    0.873E-03
DAV:   7    -0.151616414664E+03    0.50071E-04   -0.16586E-05  2308   0.646E-02    0.827E-03
DAV:   8    -0.151616373457E+03    0.41207E-04   -0.14925E-05  2356   0.660E-02    0.927E-03
DAV:   9    -0.151616307909E+03    0.65549E-04   -0.38174E-05  3032   0.120E-01    0.719E-03
DAV:  10    -0.151616224648E+03    0.83260E-04   -0.93720E-05  3848   0.203E-01    0.953E-03
DAV:  11    -0.151616197060E+03    0.27589E-04   -0.12296E-04  3824   0.156E-01    0.101E-02
DAV:  12    -0.151616204117E+03   -0.70573E-05   -0.14564E-04  2940   0.709E-02    0.731E-03
DAV:  13    -0.151616207241E+03   -0.31242E-05   -0.39102E-05  2508   0.221E-02
  33 F= -.15161621E+03 E0= -.15161400E+03  d E =-.278715E-03
       N       E                     dE             d eps       ncg     rms          rms(c)
DAV:   1    -0.151615547498E+03    0.65662E-03   -0.56672E-01  2944   0.328E+00    0.109E-01
DAV:   2    -0.151616762449E+03   -0.12150E-02   -0.15059E-02  3184   0.465E-01    0.560E-02
DAV:   3    -0.151616664398E+03    0.98051E-04   -0.50511E-04  3304   0.734E-02    0.385E-02
DAV:   4    -0.151616632325E+03    0.32072E-04   -0.87183E-05  3264   0.374E-02    0.247E-02
DAV:   5    -0.151616595245E+03    0.37080E-04   -0.71254E-05  3132   0.524E-02    0.701E-03
DAV:   6    -0.151616591500E+03    0.37447E-05   -0.37442E-05  2980   0.283E-02
  34 F= -.15161659E+03 E0= -.15161437E+03  d E =-.662974E-03
       N       E                     dE             d eps       ncg     rms          rms(c)
DAV:   1    -0.151616904866E+03   -0.30962E-03   -0.18889E-02  2904   0.602E-01    0.239E-02
DAV:   2    -0.151616934378E+03   -0.29511E-04   -0.56091E-04  3192   0.983E-02    0.115E-02
DAV:   3    -0.151616928686E+03    0.56917E-05   -0.52424E-05  2964   0.290E-02    0.947E-03
DAV:   4    -0.151616923915E+03    0.47708E-05   -0.53487E-06  1720   0.124E-02    0.609E-03
DAV:   5    -0.151616909511E+03    0.14404E-04   -0.85115E-06  1940   0.373E-02    0.549E-03
DAV:   6    -0.151616902110E+03    0.74010E-05   -0.59949E-06  2000   0.284E-02
  35 F= -.15161690E+03 E0= -.15161468E+03  d E =-.310610E-03
       N       E                     dE             d eps       ncg     rms          rms(c)
DAV:   1    -0.151617327324E+03   -0.41781E-03   -0.17081E-01  2880   0.181E+00    0.643E-02
DAV:   2    -0.151617663260E+03   -0.33594E-03   -0.49879E-03  3192   0.277E-01    0.341E-02
DAV:   3    -0.151617622565E+03    0.40696E-04   -0.26454E-04  3340   0.607E-02    0.258E-02
DAV:   4    -0.151617601432E+03    0.21133E-04   -0.31000E-05  2312   0.287E-02    0.170E-02
DAV:   5    -0.151617554944E+03    0.46488E-04   -0.43375E-05  3016   0.705E-02    0.982E-03
DAV:   6    -0.151617541870E+03    0.13074E-04   -0.27928E-05  2464   0.408E-02    0.966E-03
DAV:   7    -0.151617518138E+03    0.23732E-04   -0.22268E-05  2360   0.611E-02    0.521E-03
DAV:   8    -0.151617498321E+03    0.19818E-04   -0.11816E-05  2092   0.517E-02    0.538E-03
DAV:   9    -0.151617438291E+03    0.60030E-04   -0.83502E-05  3496   0.182E-01    0.186E-02
DAV:  10    -0.151617407016E+03    0.31275E-04   -0.69889E-05  3512   0.142E-01    0.162E-02
DAV:  11    -0.151617407502E+03   -0.48584E-06   -0.16655E-04  3000   0.729E-02    0.758E-03
DAV:  12    -0.151617407049E+03    0.45286E-06   -0.31101E-05  2328   0.243E-02
  36 F= -.15161741E+03 E0= -.15161521E+03  d E =-.815548E-03
       N       E                     dE             d eps       ncg     rms          rms(c)
DAV:   1    -0.151617421566E+03   -0.14064E-04   -0.24222E-02  2952   0.685E-01    0.269E-02
DAV:   2    -0.151617479236E+03   -0.57670E-04   -0.80408E-04  3224   0.112E-01    0.144E-02
DAV:   3    -0.151617473368E+03    0.58677E-05   -0.35688E-05  2348   0.212E-02    0.100E-02
DAV:   4    -0.151617471198E+03    0.21705E-05   -0.62585E-06  1728   0.982E-03    0.606E-03
DAV:   5    -0.151617468115E+03    0.30828E-05   -0.59557E-06  1864   0.156E-02    0.307E-03
DAV:   6    -0.151617467269E+03    0.84606E-06   -0.21214E-06  1660   0.113E-02
  37 F= -.15161747E+03 E0= -.15161529E+03  d E =-.875768E-03
       N       E                     dE             d eps       ncg     rms          rms(c)
DAV:   1    -0.151617461058E+03    0.70566E-05   -0.76316E-03  2896   0.384E-01    0.138E-02
DAV:   2    -0.151617475521E+03   -0.14463E-04   -0.22199E-04  3256   0.601E-02    0.739E-03
DAV:   3    -0.151617473135E+03    0.23863E-05   -0.10869E-05  1948   0.143E-02    0.558E-03
DAV:   4    -0.151617471258E+03    0.18766E-05   -0.18134E-06  1676   0.932E-03    0.355E-03
DAV:   5    -0.151617466877E+03    0.43813E-05   -0.28368E-06  1900   0.232E-02    0.273E-03
DAV:   6    -0.151617465822E+03    0.10548E-05   -0.29310E-06  1684   0.117E-02
  38 F= -.15161747E+03 E0= -.15161529E+03  d E =-.874322E-03
       N       E                     dE             d eps       ncg     rms          rms(c)
DAV:   1    -0.151617689891E+03   -0.22301E-03   -0.10183E-02  3080   0.425E-01    0.142E-02
DAV:   2    -0.151617699153E+03   -0.92623E-05   -0.22135E-04  3336   0.643E-02    0.100E-02
DAV:   3    -0.151617694089E+03    0.50647E-05   -0.11259E-05  1996   0.191E-02    0.736E-03
DAV:   4    -0.151617689121E+03    0.49675E-05   -0.49396E-06  1964   0.172E-02    0.397E-03
DAV:   5    -0.151617684472E+03    0.46495E-05   -0.67064E-06  2040   0.203E-02    0.281E-03
DAV:   6    -0.151617682129E+03    0.23425E-05   -0.48047E-06  1752   0.169E-02
  39 F= -.15161768E+03 E0= -.15161552E+03  d E =-.216307E-03
       N       E                     dE             d eps       ncg     rms          rms(c)
DAV:   1    -0.151617946180E+03   -0.26171E-03   -0.90034E-02  3024   0.126E+00    0.405E-02
DAV:   2    -0.151618046457E+03   -0.10028E-03   -0.19337E-03  3360   0.187E-01    0.274E-02
DAV:   3    -0.151618012000E+03    0.34458E-04   -0.77515E-05  3384   0.478E-02    0.214E-02
DAV:   4    -0.151617980954E+03    0.31046E-04   -0.39280E-05  2932   0.404E-02    0.115E-02
DAV:   5    -0.151617955666E+03    0.25288E-04   -0.44822E-05  2992   0.475E-02    0.785E-03
DAV:   6    -0.151617949655E+03    0.60113E-05   -0.32719E-05  2780   0.320E-02
  40 F= -.15161795E+03 E0= -.15161581E+03  d E =-.483833E-03
       N       E                     dE             d eps       ncg     rms          rms(c)
DAV:   1    -0.151618053256E+03   -0.97590E-04   -0.54383E-03  2952   0.321E-01    0.135E-02
DAV:   2    -0.151618062478E+03   -0.92226E-05   -0.16385E-04  3328   0.541E-02    0.958E-03
DAV:   3    -0.151618059506E+03    0.29719E-05   -0.73153E-06  1760   0.157E-02    0.660E-03
DAV:   4    -0.151618056307E+03    0.31994E-05   -0.50682E-06  1816   0.144E-02    0.303E-03
DAV:   5    -0.151618053321E+03    0.29858E-05   -0.26054E-06  1820   0.135E-02    0.253E-03
DAV:   6    -0.151618049760E+03    0.35612E-05   -0.25745E-06  1956   0.205E-02
  41 F= -.15161805E+03 E0= -.15161592E+03  d E =-.100105E-03
       N       E                     dE             d eps       ncg     rms          rms(c)
DAV:   1    -0.151618109822E+03   -0.56501E-04   -0.45027E-02  2904   0.923E-01    0.355E-02
DAV:   2    -0.151618203531E+03   -0.93708E-04   -0.13641E-03  3328   0.156E-01    0.253E-02
DAV:   3    -0.151618190069E+03    0.13462E-04   -0.45825E-05  3208   0.351E-02    0.198E-02
DAV:   4    -0.151618178766E+03    0.11303E-04   -0.33655E-05  2752   0.307E-02    0.850E-03
DAV:   5    -0.151618171463E+03    0.73029E-05   -0.15153E-05  2084   0.297E-02    0.681E-03
DAV:   6    -0.151618169174E+03    0.22895E-05   -0.11174E-05  2020   0.220E-02
  42 F= -.15161817E+03 E0= -.15161605E+03  d E =-.219519E-03
       N       E                     dE             d eps       ncg     rms          rms(c)
DAV:   1    -0.151618259503E+03   -0.88040E-04   -0.13367E-02  3032   0.502E-01    0.181E-02
DAV:   2    -0.151618290354E+03   -0.30851E-04   -0.41443E-04  3224   0.749E-02    0.103E-02
DAV:   3    -0.151618286121E+03    0.42334E-05   -0.11825E-05  2084   0.145E-02    0.670E-03
DAV:   4    -0.151618284277E+03    0.18440E-05   -0.34531E-06  1688   0.108E-02    0.410E-03
DAV:   5    -0.151618282045E+03    0.22315E-05   -0.19374E-06  1828   0.146E-02    0.187E-03
DAV:   6    -0.151618280213E+03    0.18319E-05   -0.19716E-06  1732   0.159E-02
  43 F= -.15161828E+03 E0= -.15161615E+03  d E =-.111040E-03
       N       E                     dE             d eps       ncg     rms          rms(c)
DAV:   1    -0.151618216521E+03    0.65524E-04   -0.12031E-01  3024   0.151E+00    0.514E-02
DAV:   2    -0.151618485685E+03   -0.26916E-03   -0.36904E-03  3248   0.222E-01    0.312E-02
DAV:   3    -0.151618447924E+03    0.37761E-04   -0.11337E-04  3044   0.379E-02    0.202E-02
DAV:   4    -0.151618432479E+03    0.15445E-04   -0.21893E-05  2284   0.233E-02    0.131E-02
DAV:   5    -0.151618409793E+03    0.22686E-04   -0.18206E-05  2332   0.409E-02    0.524E-03
DAV:   6    -0.151618394702E+03    0.15091E-04   -0.19957E-05  2376   0.381E-02    0.412E-03
DAV:   7    -0.151618374481E+03    0.20222E-04   -0.10126E-05  2136   0.532E-02    0.644E-03
DAV:   8    -0.151618350751E+03    0.23729E-04   -0.14422E-05  2280   0.749E-02    0.597E-03
DAV:   9    -0.151618333049E+03    0.17703E-04   -0.30618E-05  2872   0.811E-02    0.336E-03
DAV:  10    -0.151618318284E+03    0.14765E-04   -0.15871E-05  2360   0.109E-01    0.246E-03
DAV:  11    -0.151618320745E+03   -0.24610E-05   -0.67221E-05  2936   0.608E-02
  44 F= -.15161832E+03 E0= -.15161614E+03  d E =-.151572E-03
       N       E                     dE             d eps       ncg     rms          rms(c)
DAV:   1    -0.151618336606E+03   -0.18322E-04   -0.14129E-02  3064   0.518E-01    0.201E-02
DAV:   2    -0.151618367284E+03   -0.30678E-04   -0.44697E-04  3216   0.773E-02    0.107E-02
DAV:   3    -0.151618362651E+03    0.46333E-05   -0.12851E-05  2136   0.131E-02    0.676E-03
DAV:   4    -0.151618360853E+03    0.17976E-05   -0.41094E-06  1676   0.890E-03    0.403E-03
DAV:   5    -0.151618359057E+03    0.17959E-05   -0.22769E-06  1872   0.113E-02    0.170E-03
DAV:   6    -0.151618357890E+03    0.11674E-05   -0.23810E-06  1740   0.114E-02
  45 F= -.15161836E+03 E0= -.15161619E+03  d E =-.188716E-03
       N       E                     dE             d eps       ncg     rms          rms(c)
DAV:   1    -0.151618445673E+03   -0.86616E-04   -0.24298E-03  2900   0.206E-01    0.832E-03
DAV:   2    -0.151618449649E+03   -0.39751E-05   -0.83371E-05  3040   0.350E-02    0.484E-03
DAV:   3    -0.151618448679E+03    0.97001E-06   -0.64864E-06  1708   0.106E-02    0.368E-03
DAV:   4    -0.151618448159E+03    0.51948E-06   -0.79984E-07  1584   0.537E-03    0.255E-03
DAV:   5    -0.151618446826E+03    0.13330E-05   -0.84877E-07  1720   0.117E-02    0.133E-03
DAV:   6    -0.151618446343E+03    0.48257E-06   -0.93915E-07  1588   0.798E-03
  46 F= -.15161845E+03 E0= -.15161627E+03  d E =-.884534E-04
       N       E                     dE             d eps       ncg     rms          rms(c)
DAV:   1    -0.151618624816E+03   -0.17799E-03   -0.22104E-02  2916   0.622E-01    0.249E-02
DAV:   2    -0.151618664412E+03   -0.39597E-04   -0.78648E-04  3244   0.103E-01    0.152E-02
DAV:   3    -0.151618655452E+03    0.89608E-05   -0.52712E-05  2692   0.284E-02    0.112E-02
DAV:   4    -0.151618652349E+03    0.31032E-05   -0.65007E-06  1828   0.134E-02    0.786E-03
DAV:   5    -0.151618646002E+03    0.63462E-05   -0.53720E-06  2004   0.240E-02    0.348E-03
DAV:   6    -0.151618643346E+03    0.26566E-05   -0.54351E-06  1936   0.211E-02
  47 F= -.15161864E+03 E0= -.15161642E+03  d E =-.285456E-03
       N       E                     dE             d eps       ncg     rms          rms(c)
DAV:   1    -0.151618664720E+03   -0.18718E-04   -0.88396E-02  2932   0.124E+00    0.495E-02
DAV:   2    -0.151618820872E+03   -0.15615E-03   -0.31459E-03  3252   0.207E-01    0.306E-02
DAV:   3    -0.151618785058E+03    0.35813E-04   -0.21112E-04  3276   0.559E-02    0.226E-02
DAV:   4    -0.151618772728E+03    0.12331E-04   -0.23065E-05  2296   0.247E-02    0.160E-02
DAV:   5    -0.151618747537E+03    0.25190E-04   -0.21892E-05  2620   0.471E-02    0.705E-03
DAV:   6    -0.151618736737E+03    0.10800E-04   -0.18277E-05  2272   0.420E-02    0.532E-03
DAV:   7    -0.151618729190E+03    0.75476E-05   -0.20086E-05  2392   0.452E-02
  48 F= -.15161873E+03 E0= -.15161642E+03  d E =-.371300E-03
       N       E                     dE             d eps       ncg     rms          rms(c)
DAV:   1    -0.151618978945E+03   -0.24221E-03   -0.74472E-03  2900   0.356E-01    0.173E-02
DAV:   2    -0.151618980014E+03   -0.10693E-05   -0.27988E-04  3276   0.645E-02    0.117E-02
DAV:   3    -0.151618972741E+03    0.72730E-05   -0.16674E-05  2100   0.159E-02    0.874E-03
DAV:   4    -0.151618965048E+03    0.76935E-05   -0.59599E-06  1832   0.190E-02    0.506E-03
DAV:   5    -0.151618955726E+03    0.93218E-05   -0.50213E-06  2024   0.262E-02    0.346E-03
DAV:   6    -0.151618942295E+03    0.13431E-04   -0.36448E-06  2036   0.437E-02    0.263E-03
DAV:   7    -0.151618929680E+03    0.12615E-04   -0.95551E-06  2208   0.505E-02    0.331E-03
DAV:   8    -0.151618917002E+03    0.12678E-04   -0.65635E-06  2080   0.632E-02    0.220E-03
DAV:   9    -0.151618901414E+03    0.15588E-04   -0.29332E-05  2660   0.134E-01    0.367E-03
DAV:  10    -0.151618907576E+03   -0.61615E-05   -0.77966E-05  2816   0.341E-02
  49 F= -.15161891E+03 E0= -.15161657E+03  d E =-.178386E-03
       N       E                     dE             d eps       ncg     rms          rms(c)
DAV:   1    -0.151619061081E+03   -0.15967E-03   -0.11958E-02  2928   0.449E-01    0.246E-02
DAV:   2    -0.151619066390E+03   -0.53098E-05   -0.45105E-04  3276   0.833E-02    0.134E-02
DAV:   3    -0.151619059474E+03    0.69164E-05   -0.35003E-05  2348   0.222E-02    0.101E-02
DAV:   4    -0.151619056229E+03    0.32451E-05   -0.80843E-06  1832   0.144E-02    0.632E-03
DAV:   5    -0.151619051793E+03    0.44361E-05   -0.64140E-06  1964   0.178E-02    0.333E-03
DAV:   6    -0.151619048585E+03    0.32083E-05   -0.34786E-06  1852   0.158E-02
  50 F= -.15161905E+03 E0= -.15161667E+03  d E =-.319395E-03
       N       E                     dE             d eps       ncg     rms          rms(c)
DAV:   1    -0.151619020800E+03    0.30993E-04   -0.47939E-02  2936   0.900E-01    0.433E-02
DAV:   2    -0.151619045767E+03   -0.24967E-04   -0.17232E-03  3308   0.157E-01    0.267E-02
DAV:   3    -0.151619011754E+03    0.34013E-04   -0.10608E-04  2988   0.371E-02    0.202E-02
DAV:   4    -0.151618988453E+03    0.23301E-04   -0.33047E-05  2580   0.322E-02    0.123E-02
DAV:   5    -0.151618959942E+03    0.28510E-04   -0.21154E-05  2196   0.396E-02    0.709E-03
DAV:   6    -0.151618929848E+03    0.30094E-04   -0.19488E-05  2500   0.508E-02    0.508E-03
DAV:   7    -0.151618911239E+03    0.18610E-04   -0.21998E-05  2516   0.436E-02    0.497E-03
DAV:   8    -0.151618883302E+03    0.27936E-04   -0.15312E-05  2284   0.753E-02    0.498E-03
DAV:   9    -0.151618858243E+03    0.25059E-04   -0.41823E-05  3056   0.959E-02    0.754E-03
DAV:  10    -0.151618856885E+03    0.13577E-05   -0.46444E-05  2848   0.353E-02
  51 F= -.15161886E+03 E0= -.15161641E+03  d E =-.127696E-03
       N       E                     dE             d eps       ncg     rms          rms(c)
DAV:   1    -0.151619081197E+03   -0.22295E-03   -0.25159E-02  3052   0.651E-01    0.314E-02
DAV:   2    -0.151619091079E+03   -0.98820E-05   -0.87751E-04  3268   0.114E-01    0.187E-02
DAV:   3    -0.151619075246E+03    0.15834E-04   -0.66506E-05  2840   0.313E-02    0.145E-02
DAV:   4    -0.151619066873E+03    0.83730E-05   -0.14292E-05  2172   0.192E-02    0.938E-03
DAV:   5    -0.151619056158E+03    0.10714E-04   -0.12777E-05  2068   0.270E-02    0.462E-03
DAV:   6    -0.151619050998E+03    0.51607E-05   -0.10428E-05  2168   0.249E-02
  52 F= -.15161905E+03 E0= -.15161666E+03  d E =-.321808E-03
       N       E                     dE             d eps       ncg     rms          rms(c)
DAV:   1    -0.151619245645E+03   -0.18949E-03   -0.24360E-02  3048   0.670E-01    0.234E-02
DAV:   2    -0.151619274317E+03   -0.28673E-04   -0.58275E-04  3288   0.102E-01    0.141E-02
DAV:   3    -0.151619266861E+03    0.74567E-05   -0.33089E-05  2548   0.283E-02    0.103E-02
DAV:   4    -0.151619262966E+03    0.38947E-05   -0.57825E-06  1820   0.140E-02    0.688E-03
DAV:   5    -0.151619255666E+03    0.72998E-05   -0.93744E-06  2100   0.286E-02    0.357E-03
DAV:   6    -0.151619254750E+03    0.91617E-06   -0.78773E-06  1696   0.143E-02
  53 F= -.15161925E+03 E0= -.15161684E+03  d E =-.203753E-03
       N       E                     dE             d eps       ncg     rms          rms(c)
DAV:   1    -0.151619346251E+03   -0.90585E-04   -0.93148E-02  3040   0.131E+00    0.449E-02
DAV:   2    -0.151619458631E+03   -0.11238E-03   -0.22538E-03  3292   0.199E-01    0.274E-02
DAV:   3    -0.151619427932E+03    0.30700E-04   -0.12053E-04  3320   0.549E-02    0.208E-02
DAV:   4    -0.151619409476E+03    0.18456E-04   -0.17272E-05  2256   0.276E-02    0.142E-02
DAV:   5    -0.151619373478E+03    0.35998E-04   -0.47137E-05  3056   0.679E-02    0.808E-03
DAV:   6    -0.151619369655E+03    0.38234E-05   -0.34674E-05  2732   0.301E-02
  54 F= -.15161937E+03 E0= -.15161691E+03  d E =-.318657E-03
       N       E                     dE             d eps       ncg     rms          rms(c)
DAV:   1    -0.151619530271E+03   -0.15679E-03   -0.12786E-02  3064   0.499E-01    0.191E-02
DAV:   2    -0.151619550954E+03   -0.20683E-04   -0.40546E-04  3288   0.869E-02    0.131E-02
DAV:   3    -0.151619540607E+03    0.10347E-04   -0.16687E-05  2040   0.264E-02    0.101E-02
DAV:   4    -0.151619529588E+03    0.11019E-04   -0.50902E-06  1836   0.235E-02    0.612E-03
DAV:   5    -0.151619505369E+03    0.24219E-04   -0.78396E-06  2104   0.545E-02    0.406E-03
DAV:   6    -0.151619494115E+03    0.11254E-04   -0.18470E-05  2252   0.366E-02    0.605E-03
DAV:   7    -0.151619482411E+03    0.11704E-04   -0.42530E-05  2792   0.566E-02    0.135E-02
DAV:   8    -0.151619443749E+03    0.38662E-04   -0.19499E-05  2412   0.131E-01    0.140E-02
DAV:   9    -0.151619431854E+03    0.11895E-04   -0.51635E-05  2856   0.608E-02    0.992E-03
DAV:  10    -0.151619420116E+03    0.11738E-04   -0.54090E-05  3276   0.899E-02    0.854E-03
DAV:  11    -0.151619416385E+03    0.37303E-05   -0.30949E-05  2712   0.625E-02
  55 F= -.15161942E+03 E0= -.15161694E+03  d E =-.467304E-04
       N       E                     dE             d eps       ncg     rms          rms(c)
DAV:   1    -0.151619431744E+03   -0.11629E-04   -0.18022E-03  2992   0.188E-01    0.763E-03
DAV:   2    -0.151619434249E+03   -0.25050E-05   -0.54809E-05  3160   0.315E-02    0.604E-03
DAV:   3    -0.151619433222E+03    0.10277E-05   -0.29024E-06  1632   0.812E-03    0.419E-03
DAV:   4    -0.151619432325E+03    0.89612E-06   -0.11082E-06  1616   0.734E-03    0.215E-03
DAV:   5    -0.151619431386E+03    0.93939E-06   -0.10975E-06  1708   0.937E-03    0.119E-03
DAV:   6    -0.151619431111E+03    0.27530E-06   -0.10928E-06  1608   0.533E-03
  56 F= -.15161943E+03 E0= -.15161696E+03  d E =-.614558E-04
       N       E                     dE             d eps       ncg     rms          rms(c)
DAV:   1    -0.151619431621E+03   -0.23544E-06   -0.35575E-04  2832   0.836E-02    0.348E-03
DAV:   2    -0.151619431957E+03   -0.33509E-06   -0.12125E-05  1748   0.156E-02    0.195E-03
DAV:   3    -0.151619431542E+03    0.41429E-06   -0.11618E-06  1596   0.601E-03    0.175E-03
DAV:   4    -0.151619431237E+03    0.30532E-06   -0.25088E-07  1536   0.347E-03    0.144E-03
DAV:   5    -0.151619429790E+03    0.14470E-05   -0.54856E-07  1740   0.128E-02    0.116E-03
DAV:   6    -0.151619428937E+03    0.85252E-06   -0.11723E-06  1680   0.111E-02
  57 F= -.15161943E+03 E0= -.15161695E+03  d E =-.592825E-04
       N       E                     dE             d eps       ncg     rms          rms(c)
DAV:   1    -0.151619496892E+03   -0.67102E-04   -0.80798E-03  3048   0.396E-01    0.141E-02
DAV:   2    -0.151619512651E+03   -0.15759E-04   -0.23804E-04  3328   0.653E-02    0.957E-03
DAV:   3    -0.151619509758E+03    0.28925E-05   -0.88986E-06  1844   0.163E-02    0.728E-03
DAV:   4    -0.151619507420E+03    0.23386E-05   -0.34969E-06  1824   0.121E-02    0.393E-03
DAV:   5    -0.151619505016E+03    0.24036E-05   -0.30030E-06  1956   0.166E-02    0.206E-03
DAV:   6    -0.151619504521E+03    0.49503E-06   -0.36863E-06  1608   0.112E-02
  58 F= -.15161950E+03 E0= -.15161703E+03  d E =-.755839E-04
