 vasp.5.4.4.18Apr17-6-g9f103f2a35 (build Nov 15 2019 10:10:58) complex          
  
 executed on             LinuxIFC date 2025.01.15  07:35:30
 running on   16 total cores
 distrk:  each k-point on   16 cores,    1 groups
 distr:  one band on NCORES_PER_BAND=   4 cores,    4 groups


--------------------------------------------------------------------------------------------------------


 INCAR:
 POTCAR:   PAW_PBE O 08Apr2002                    
 POTCAR:   PAW_PBE Mg 05Jan2001                   
 POTCAR:   PAW_PBE Al 04Jan2001                   
 POTCAR:   PAW_PBE O 08Apr2002                    
   VRHFIN =O: s2p4                                                              
   LEXCH  = PE                                                                  
   EATOM  =   432.3788 eV,   31.7789 Ry                                         
                                                                                
   TITEL  = PAW_PBE O 08Apr2002                                                 
   LULTRA =        F    use ultrasoft PP ?                                      
   IUNSCR =        0    unscreen: 0-lin 1-nonlin 2-no                           
   RPACOR =     .000    partial core radius                                     
   POMASS =   16.000; ZVAL   =    6.000    mass and valenz                      
   RCORE  =    1.520    outmost cutoff radius                                   
   RWIGS  =    1.550; RWIGS  =     .820    wigner-seitz radius (au A)           
   ENMAX  =  400.000; ENMIN  =  300.000 eV                                      
   ICORE  =        2    local potential                                         
   LCOR   =        T    correct aug charges                                     
   LPAW   =        T    paw PP                                                  
   EAUG   =  605.392                                                            
   DEXC   =     .000                                                            
   RMAX   =    2.264    core radius for proj-oper                               
   RAUG   =    1.300    factor for augmentation sphere                          
   RDEP   =    1.550    radius for radial grids                                 
   QCUT   =   -5.520; QGAM   =   11.041    optimization parameters              
                                                                                
   Description                                                                  
     l     E      TYP  RCUT    TYP  RCUT                                        
     0   .000     23  1.200                                                     
     0  -.700     23  1.200                                                     
     1   .000     23  1.520                                                     
     1   .600     23  1.520                                                     
     2   .000      7  1.500                                                     
  local pseudopotential read in
  atomic valenz-charges read in
  non local Contribution for L=           0  read in
    real space projection operators read in
  non local Contribution for L=           0  read in
    real space projection operators read in
  non local Contribution for L=           1  read in
    real space projection operators read in
  non local Contribution for L=           1  read in
    real space projection operators read in
    PAW grid and wavefunctions read in
 
   number of l-projection  operators is LMAX  =           4
   number of lm-projection operators is LMMAX =           8
 
 POTCAR:   PAW_PBE Mg 05Jan2001                   
   VRHFIN =Mg: s2p0                                                             
   LEXCH  = PE                                                                  
   EATOM  =    23.0029 eV,    1.6907 Ry                                         
                                                                                
   TITEL  = PAW_PBE Mg 05Jan2001                                                
   LULTRA =        F    use ultrasoft PP ?                                      
   IUNSCR =        1    unscreen: 0-lin 1-nonlin 2-no                           
   RPACOR =    2.000    partial core radius                                     
   POMASS =   24.305; ZVAL   =    2.000    mass and valenz                      
   RCORE  =    2.000    outmost cutoff radius                                   
   RWIGS  =    2.880; RWIGS  =    1.524    wigner-seitz radius (au A)           
   ENMAX  =  210.012; ENMIN  =  157.509 eV                                      
   ICORE  =        2    local potential                                         
   LCOR   =        T    correct aug charges                                     
   LPAW   =        T    paw PP                                                  
   EAUG   =  274.554                                                            
   DEXC   =    -.136                                                            
   RMAX   =    3.182    core radius for proj-oper                               
   RAUG   =    1.300    factor for augmentation sphere                          
   RDEP   =    2.025    radius for radial grids                                 
   QCUT   =   -3.929; QGAM   =    7.858    optimization parameters              
                                                                                
   Description                                                                  
     l     E      TYP  RCUT    TYP  RCUT                                        
     0   .000     23  2.000                                                     
     0  2.000     23  2.000                                                     
     1   .000     23  2.000                                                     
     1  2.000     23  2.000                                                     
     2   .000     23  2.000                                                     
  local pseudopotential read in
  partial core-charges read in
  atomic valenz-charges read in
  non local Contribution for L=           0  read in
    real space projection operators read in
  non local Contribution for L=           0  read in
    real space projection operators read in
  non local Contribution for L=           1  read in
    real space projection operators read in
  non local Contribution for L=           1  read in
    real space projection operators read in
    PAW grid and wavefunctions read in
 
   number of l-projection  operators is LMAX  =           4
   number of lm-projection operators is LMMAX =           8
 
 POTCAR:   PAW_PBE Al 04Jan2001                   
   VRHFIN =Al: s2p1                                                             
   LEXCH  = PE                                                                  
   EATOM  =    53.5387 eV,    3.9350 Ry                                         
                                                                                
   TITEL  = PAW_PBE Al 04Jan2001                                                
   LULTRA =        F    use ultrasoft PP ?                                      
   IUNSCR =        1    unscreen: 0-lin 1-nonlin 2-no                           
   RPACOR =    1.500    partial core radius                                     
   POMASS =   26.982; ZVAL   =    3.000    mass and valenz                      
   RCORE  =    1.900    outmost cutoff radius                                   
   RWIGS  =    2.650; RWIGS  =    1.402    wigner-seitz radius (au A)           
   ENMAX  =  240.300; ENMIN  =  180.225 eV                                      
   ICORE  =        2    local potential                                         
   LCOR   =        T    correct aug charges                                     
   LPAW   =        T    paw PP                                                  
   EAUG   =  291.052                                                            
   DEXC   =    -.041                                                            
   RMAX   =    2.974    core radius for proj-oper                               
   RAUG   =    1.300    factor for augmentation sphere                          
   RDEP   =    1.966    radius for radial grids                                 
   QCUT   =   -4.203; QGAM   =    8.405    optimization parameters              
                                                                                
   Description                                                                  
     l     E      TYP  RCUT    TYP  RCUT                                        
     0   .000     23  1.900                                                     
     0   .000     23  1.900                                                     
     1   .000     23  1.900                                                     
     1  1.000     23  1.900                                                     
     2   .000      7  1.900                                                     
  local pseudopotential read in
  partial core-charges read in
  atomic valenz-charges read in
  non local Contribution for L=           0  read in
    real space projection operators read in
  non local Contribution for L=           0  read in
    real space projection operators read in
  non local Contribution for L=           1  read in
    real space projection operators read in
  non local Contribution for L=           1  read in
    real space projection operators read in
    PAW grid and wavefunctions read in
 
   number of l-projection  operators is LMAX  =           4
   number of lm-projection operators is LMMAX =           8
 

 ----------------------------------------------------------------------------- 
|                                                                             |
|  ADVICE TO THIS USER RUNNING 'VASP/VAMP'   (HEAR YOUR MASTER'S VOICE ...):  |
|                                                                             |
|      You have a (more or less) 'large supercell' and for larger cells       |
|      it might be more efficient to use real space projection operators      |
|      So try LREAL= Auto  in the INCAR   file.                               |
|      Mind: If you want to do a very accurate calculations keep the          |
|      reciprocal projection scheme          (i.e. LREAL=.FALSE.)             |
|                                                                             |
 ----------------------------------------------------------------------------- 

 PAW_PBE O 08Apr2002                    :
 energy of atom  1       EATOM= -432.3788
 kinetic energy error for atom=    0.0208 (will be added to EATOM!!)
 PAW_PBE Mg 05Jan2001                   :
 energy of atom  2       EATOM=  -23.0029
 kinetic energy error for atom=    0.0000 (will be added to EATOM!!)
 PAW_PBE Al 04Jan2001                   :
 energy of atom  3       EATOM=  -53.5387
 kinetic energy error for atom=    0.0002 (will be added to EATOM!!)
 
 
 POSCAR: Layer26                                 
  positions in direct lattice
  velocities in cartesian coordinates
 exchange correlation table for  LEXCH =        8
   RHO(1)=    0.500       N(1)  =     2000
   RHO(2)=  100.500       N(2)  =     4000

 VTST: version 3.2, (02/03/18)

 CHAIN: initializing optimizer
 
 OPT: Using VASP Conjugate-Gradient optimizer
 CHAIN: Read ICHAIN            0
 
 POSCAR: Layer26                                 
  positions in direct lattice
  velocities in cartesian coordinates
 


--------------------------------------------------------------------------------------------------------


 ion  position               nearest neighbor table
   1  0.333  0.667  0.432-  12 2.20  12 2.20  12 2.20  24 2.21  24 2.21  24 2.21
   2  0.000  0.000  0.501-  19 2.08  19 2.08  19 2.08  16 2.17  16 2.17  16 2.17
   3  0.333  0.667  0.536-  16 2.08  16 2.08  16 2.08  13 2.17  13 2.17  13 2.17
   4  0.000  0.000  0.604-  20 2.08  20 2.08  20 2.08  17 2.17  17 2.17  17 2.17
   5  0.333  0.667  0.639-  17 2.08  17 2.08  17 2.08  14 2.17  14 2.17  14 2.17
   6  0.000  0.000  0.707-  21 2.08  21 2.08  21 2.08  18 2.17  18 2.17  18 2.17
   7  0.333  0.667  0.741-  18 2.06  18 2.06  18 2.06  15 2.21  15 2.21  15 2.21
   8  0.667  0.333  0.467-  12 2.08  12 2.08  12 2.08  19 2.17  19 2.17  19 2.17
   9  0.667  0.333  0.570-  13 2.08  13 2.08  13 2.08  20 2.17  20 2.17  20 2.17
  10  0.667  0.333  0.673-  14 2.08  14 2.08  14 2.08  21 2.17  21 2.17  21 2.17
  11  0.667  0.333  0.774-  15 1.97  15 1.97  15 1.97
  12  0.000  0.000  0.451-   8 2.08   8 2.08   8 2.08   1 2.20   1 2.20   1 2.20  24 2.73  19 3.01
                            19 3.01  19 3.01
  13  0.000  0.000  0.554-   9 2.08   9 2.08   9 2.08   3 2.17   3 2.17   3 2.17  20 3.01  20 3.01
                            20 3.01  16 3.01  16 3.01  16 3.01
  14  0.000  0.000  0.657-  10 2.08  10 2.08  10 2.08   5 2.17   5 2.17   5 2.17  21 3.01  21 3.01
                            21 3.01  17 3.01  17 3.01  17 3.01
  15  0.000  0.000  0.761-  11 1.97  11 1.97  11 1.97   7 2.21   7 2.21   7 2.21  18 3.05  18 3.05
                            18 3.05
  16  0.667  0.333  0.520-   3 2.08   3 2.08   3 2.08   2 2.17   2 2.17   2 2.17  19 3.01  19 3.01
                            19 3.01  13 3.01  13 3.01  13 3.01
  17  0.667  0.333  0.623-   5 2.08   5 2.08   5 2.08   4 2.17   4 2.17   4 2.17  14 3.01  14 3.01
                            14 3.01  20 3.01  20 3.01  20 3.01
  18  0.667  0.333  0.726-   7 2.06   7 2.06   7 2.06   6 2.17   6 2.17   6 2.17  21 3.01  21 3.01
                            21 3.01  15 3.05  15 3.05  15 3.05
  19  0.333  0.667  0.485-   2 2.08   2 2.08   2 2.08   8 2.17   8 2.17   8 2.17  12 3.01  12 3.01
                            12 3.01  16 3.01  16 3.01  16 3.01
  20  0.333  0.667  0.588-   4 2.08   4 2.08   4 2.08   9 2.17   9 2.17   9 2.17  17 3.01  17 3.01
                            17 3.01  13 3.01  13 3.01  13 3.01
  21  0.333  0.667  0.691-   6 2.08   6 2.08   6 2.08  10 2.17  10 2.17  10 2.17  14 3.01  14 3.01
                            14 3.01  18 3.01  18 3.01  18 3.01
  22  0.000  0.000  0.227-  27 2.84  27 2.84  27 2.84
  23  0.000  0.000  0.321-  25 2.82  25 2.82  25 2.82  28 2.83  28 2.83  28 2.83
  24  0.000  0.000  0.413-   1 2.21   1 2.21   1 2.21  12 2.73  26 2.75  26 2.75  26 2.75
  25  0.667  0.333  0.290-  27 2.81  27 2.81  27 2.81  23 2.82  23 2.82  23 2.82
  26  0.667  0.333  0.383-  24 2.75  24 2.75  24 2.75  28 2.83  28 2.83  28 2.83
  27  0.333  0.667  0.259-  25 2.81  25 2.81  25 2.81  22 2.84  22 2.84  22 2.84
  28  0.333  0.667  0.352-  23 2.83  23 2.83  23 2.83  26 2.83  26 2.83  26 2.83
 
  LATTYP: Found a hexagonal cell.
 ALAT       =     2.9934728877
 C/A-ratio  =    23.9760431236
  
  Lattice vectors:
  
 A1 = (   2.5924236677,  -1.4967362682,   0.0000000000)
 A2 = (   0.0000000000,   2.9934725364,   0.0000000000)
 A3 = (   0.0000000000,   0.0000000000,  71.7716350437)


Analysis of symmetry for initial positions (statically):
=====================================================================
 Subroutine PRICEL returns:
 Original cell was already a primitive cell.
 

 Routine SETGRP: Setting up the symmetry group for a 
 hexagonal supercell.


 Subroutine GETGRP returns: Found  6 space group operations
 (whereof  6 operations were pure point group operations)
 out of a pool of 24 trial point group operations.


The static configuration has the point symmetry C_3v.


Analysis of symmetry for dynamics (positions and initial velocities):
=====================================================================
 Subroutine PRICEL returns:
 Original cell was already a primitive cell.
 

 Routine SETGRP: Setting up the symmetry group for a 
 hexagonal supercell.


 Subroutine GETGRP returns: Found  6 space group operations
 (whereof  6 operations were pure point group operations)
 out of a pool of 24 trial point group operations.


The dynamic configuration has the point symmetry C_3v.


Analysis of constrained symmetry for selective dynamics:
=====================================================================
 Subroutine PRICEL returns:
 Original cell was already a primitive cell.
 

 Routine SETGRP: Setting up the symmetry group for a 
 hexagonal supercell.


 Subroutine GETGRP returns: Found  6 space group operations
 (whereof  6 operations were pure point group operations)
 out of a pool of 24 trial point group operations.


The constrained configuration has the point symmetry C_3v.


 Subroutine INISYM returns: Found  6 space group operations
 (whereof  6 operations are pure point group operations),
 and found     1 'primitive' translations

 
 
 KPOINTS: K-Spacing Value to Generate K-Mesh: 0.02

Automatic generation of k-mesh.
Space group operators:
 irot       det(A)        alpha          n_x          n_y          n_z        tau_x        tau_y        tau_z
    1     1.000000     0.000001     1.000000     0.000000     0.000000     0.000000     0.000000     0.000000
    2     1.000000   120.000000    -0.000000    -0.000000    -1.000000     0.000000     0.000000     0.000000
    3     1.000000   120.000000     0.000000    -0.000000     1.000000     0.000000     0.000000     0.000000
    4    -1.000000   180.000000    -0.866025     0.500000     0.000000     0.000000     0.000000     0.000000
    5    -1.000000   180.000000     0.000000     1.000000     0.000000     0.000000     0.000000     0.000000
    6    -1.000000   180.000000    -0.866025    -0.500000     0.000000     0.000000     0.000000     0.000000
 
 Subroutine IBZKPT returns following result:
 ===========================================
 
 Found     21 irreducible k-points:
 
 Following reciprocal coordinates:
            Coordinates               Weight
  0.000000  0.000000  0.000000      1.000000
  0.076923  0.000000  0.000000      6.000000
  0.153846  0.000000  0.000000      6.000000
  0.230769  0.000000  0.000000      6.000000
  0.307692  0.000000  0.000000      6.000000
  0.384615  0.000000  0.000000      6.000000
  0.461538  0.000000  0.000000      6.000000
  0.076923  0.076923  0.000000      6.000000
  0.153846  0.076923  0.000000     12.000000
  0.230769  0.076923  0.000000     12.000000
  0.307692  0.076923  0.000000     12.000000
  0.384615  0.076923  0.000000     12.000000
  0.461538  0.076923  0.000000      6.000000
  0.153846  0.153846 -0.000000      6.000000
  0.230769  0.153846  0.000000     12.000000
  0.307692  0.153846  0.000000     12.000000
  0.384615  0.153846  0.000000     12.000000
  0.230769  0.230769  0.000000      6.000000
  0.307692  0.230769 -0.000000     12.000000
  0.384615  0.230769  0.000000      6.000000
  0.307692  0.307692  0.000000      6.000000
 
 Following cartesian coordinates:
            Coordinates               Weight
  0.000000  0.000000  0.000000      1.000000
  0.029672  0.000000 -0.000000      6.000000
  0.059345  0.000000 -0.000000      6.000000
  0.089017  0.000000 -0.000000      6.000000
  0.118689  0.000000 -0.000000      6.000000
  0.148361  0.000000 -0.000000      6.000000
  0.178034  0.000000 -0.000000      6.000000
  0.044508  0.025697 -0.000000      6.000000
  0.074181  0.025697 -0.000000     12.000000
  0.103853  0.025697 -0.000000     12.000000
  0.133525  0.025697 -0.000000     12.000000
  0.163197  0.025697 -0.000000     12.000000
  0.192870  0.025697 -0.000000      6.000000
  0.089017  0.051394 -0.000000      6.000000
  0.118689  0.051394 -0.000000     12.000000
  0.148361  0.051394 -0.000000     12.000000
  0.178034  0.051394 -0.000000     12.000000
  0.133525  0.077091 -0.000000      6.000000
  0.163197  0.077091 -0.000000     12.000000
  0.192870  0.077091 -0.000000      6.000000
  0.178034  0.102788 -0.000000      6.000000
 


--------------------------------------------------------------------------------------------------------




 Dimension of arrays:
   k-points           NKPTS =     21   k-points in BZ     NKDIM =     21   number of bands    NBANDS=     68
   number of dos      NEDOS =    301   number of ions     NIONS =     28
   non local maximal  LDIM  =      4   non local SUM 2l+1 LMDIM =      8
   total plane-waves  NPLWV = 311040
   max r-space proj   IRMAX =      1   max aug-charges    IRDMAX= 189959
   dimension x,y,z NGX =    24 NGY =   24 NGZ =  540
   dimension x,y,z NGXF=    48 NGYF=   48 NGZF= 1080
   support grid    NGXF=    96 NGYF=   96 NGZF= 2160
   ions per type =              11  10   7
   NGX,Y,Z   is equivalent  to a cutoff of  13.33, 13.33, 12.51 a.u.
   NGXF,Y,Z  is equivalent  to a cutoff of  26.66, 26.66, 25.02 a.u.

 SYSTEM =  unknown system                          
 POSCAR =  Layer26                                 

 Startparameter for this run:
   NWRITE =      2    write-flag & timer
   PREC   = accura    normal or accurate (medium, high low for compatibility)
   ISTART =      0    job   : 0-new  1-cont  2-samecut
   ICHARG =     11    charge: 1-file 2-atom 10-const
   ISPIN  =      1    spin polarized calculation?
   LNONCOLLINEAR =      F non collinear calculations
   LSORBIT =      F    spin-orbit coupling
   INIWAV =      1    electr: 0-lowe 1-rand  2-diag
   LASPH  =      T    aspherical Exc in radial PAW
   METAGGA=      F    non-selfconsistent MetaGGA calc.

 Electronic Relaxation 1
   ENCUT  =  520.0 eV  38.22 Ry    6.18 a.u.   5.57  5.57133.45*2*pi/ulx,y,z
   ENINI  =  520.0     initial cutoff
   ENAUG  =  605.4 eV  augmentation charge cutoff
   NELM   =    220;   NELMIN=  6; NELMDL=  0     # of ELM steps 
   EDIFF  = 0.1E-07   stopping-criterion for ELM
   LREAL  =      F    real-space projection
   NLSPLINE    = F    spline interpolate recip. space projectors
   LCOMPAT=      F    compatible to vasp.4.4
   GGA_COMPAT  = T    GGA compatible to vasp.4.4-vasp.4.6
   LMAXPAW     = -100 max onsite density
   LMAXMIX     =    2 max onsite mixed and CHGCAR
   VOSKOWN=      0    Vosko Wilk Nusair interpolation
   ROPT   =    0.00000   0.00000   0.00000
 Ionic relaxation
   EDIFFG = -.2E-01   stopping-criterion for IOM
   NSW    =      0    number of steps for IOM
   NBLOCK =      1;   KBLOCK =      1    inner block; outer block 
   IBRION =     -1    ionic relax: 0-MD 1-quasi-New 2-CG
   NFREE  =      1    steps in history (QN), initial steepest desc. (CG)
   ISIF   =      2    stress and relaxation
   IWAVPR =     10    prediction:  0-non 1-charg 2-wave 3-comb
   ISYM   =      2    0-nonsym 1-usesym 2-fastsym
   LCORR  =      T    Harris-Foulkes like correction to forces

   POTIM  = 0.5000    time-step for ionic-motion
   TEIN   =    0.0    initial temperature
   TEBEG  =    0.0;   TEEND  =   0.0 temperature during run
   SMASS  =  -3.00    Nose mass-parameter (am)
   estimated Nose-frequenzy (Omega)   =  0.10E-29 period in steps =****** mass=  -0.205E-27a.u.
   SCALEE = 1.0000    scale energy and forces
   NPACO  =    256;   APACO  = 16.0  distance and # of slots for P.C.
   PSTRESS=    0.0 pullay stress

  Mass of Ions in am
   POMASS =  16.00 24.30 26.98
  Ionic Valenz
   ZVAL   =   6.00  2.00  3.00
  Atomic Wigner-Seitz radii
   RWIGS  =  -1.00 -1.00 -1.00
  virtual crystal weights 
   VCA    =   1.00  1.00  1.00
   NELECT =     107.0000    total number of electrons
   NUPDOWN=      -1.0000    fix difference up-down

 DOS related values:
   EMIN   =  10.00;   EMAX   =-10.00  energy-range for DOS
   EFERMI =   0.00
   ISMEAR =     0;   SIGMA  =   0.05  broadening in eV -4-tet -1-fermi 0-gaus

 Electronic relaxation 2 (details)
   IALGO  =     38    algorithm
   LDIAG  =      T    sub-space diagonalisation (order eigenvalues)
   LSUBROT=      F    optimize rotation matrix (better conditioning)
   TURBO    =      0    0=normal 1=particle mesh
   IRESTART =      0    0=no restart 2=restart with 2 vectors
   NREBOOT  =      0    no. of reboots
   NMIN     =      0    reboot dimension
   EREF     =   0.00    reference energy to select bands
   IMIX   =      4    mixing-type and parameters
     AMIX     =   0.40;   BMIX     =  1.00
     AMIX_MAG =   1.60;   BMIX_MAG =  1.00
     AMIN     =   0.01
     WC   =   100.;   INIMIX=   1;  MIXPRE=   1;  MAXMIX= -45

 Intra band minimization:
   WEIMIN = 0.0000     energy-eigenvalue tresh-hold
   EBREAK =  0.37E-10  absolut break condition
   DEPER  =   0.30     relativ break condition  

   TIME   =   0.40     timestep for ELM

  volume/ion in A,a.u.               =      19.89       134.24
  Fermi-wavevector in a.u.,A,eV,Ry     =   0.944622  1.785077 12.140625  0.892311
  Thomas-Fermi vector in A             =   2.072445
 
 Write flags
   LWAVE        =      F    write WAVECAR
   LDOWNSAMPLE  =      F    k-point downsampling of WAVECAR
   LCHARG       =      T    write CHGCAR
   LVTOT        =      F    write LOCPOT, total local potential
   LVHAR        =      F    write LOCPOT, Hartree potential only
   LELF         =      F    write electronic localiz. function (ELF)
   LORBIT       =      0    0 simple, 1 ext, 2 COOP (PROOUT), +10 PAW based schemes


 Dipole corrections
   LMONO  =      F    monopole corrections only (constant potential shift)
   LDIPOL =      F    correct potential (dipole corrections)
   IDIPOL =      0    1-x, 2-y, 3-z, 4-all directions 
   EPSILON=  1.0000000 bulk dielectric constant

 Exchange correlation treatment:
   GGA     =    --    GGA type
   LEXCH   =     8    internal setting for exchange type
   VOSKOWN=      0    Vosko Wilk Nusair interpolation
   LHFCALC =     F    Hartree Fock is set to
   LHFONE  =     F    Hartree Fock one center treatment
   AEXX    =    0.0000 exact exchange contribution

 Linear response parameters
   LEPSILON=     F    determine dielectric tensor
   LRPA    =     F    only Hartree local field effects (RPA)
   LNABLA  =     F    use nabla operator in PAW spheres
   LVEL    =     F    velocity operator in full k-point grid
   LINTERFAST=   F  fast interpolation
   KINTER  =     0    interpolate to denser k-point grid
   CSHIFT  =0.1000    complex shift for real part using Kramers Kronig
   OMEGAMAX=  -1.0    maximum frequency
   DEG_THRESHOLD= 0.2000000E-02 threshold for treating states as degnerate
   RTIME   =   -0.100 relaxation time in fs
  (WPLASMAI=    0.000 imaginary part of plasma frequency in eV, 0.658/RTIME)
   DFIELD  = 0.0000000 0.0000000 0.0000000 field for delta impulse in time
 
 Orbital magnetization related:
   ORBITALMAG=     F  switch on orbital magnetization
   LCHIMAG   =     F  perturbation theory with respect to B field
   DQ        =  0.001000  dq finite difference perturbation B field
   LLRAUG    =     F  two centre corrections for induced B field



--------------------------------------------------------------------------------------------------------


 Static calculation
 charge density and potential remain constant during run
 non-spin polarized calculation
 Variant of blocked Davidson
 Davidson routine will perform the subspace rotation
 perform sub-space diagonalisation
    after iterative eigenvector-optimisation
 no mixing
 using additional bands           14
 reciprocal scheme for non local part
 use partial core corrections
 calculate Harris-corrections to forces 
   (improved forces if not selfconsistent)
 use gradient corrections 
 WARNING: stress and forces are not correct
  (second derivative of E(xc) not defined)
 use of overlap-Matrix (Vanderbilt PP)
 Gauss-broadening in eV      SIGMA  =   0.05


--------------------------------------------------------------------------------------------------------


  energy-cutoff  :      520.00
  volume of cell :      556.97
      direct lattice vectors                 reciprocal lattice vectors
     2.592423668 -1.496736268  0.000000000     0.385739419  0.000000000 -0.000000000
     0.000000000  2.993472536  0.000000000     0.192869710  0.334060189 -0.000000000
     0.000000000  0.000000000 71.771635044     0.000000000  0.000000000  0.013933081

  length of vectors
     2.993472888  2.993472536 71.771635044     0.385739419  0.385739465  0.013933081


 
 k-points in units of 2pi/SCALE and weight: K-Spacing Value to Generate K-Mesh: 0.02
   0.00000000  0.00000000  0.00000000       0.006
   0.02967226  0.00000000 -0.00000000       0.036
   0.05934453  0.00000000 -0.00000000       0.036
   0.08901679  0.00000000 -0.00000000       0.036
   0.11868905  0.00000000 -0.00000000       0.036
   0.14836132  0.00000000 -0.00000000       0.036
   0.17803358  0.00000000 -0.00000000       0.036
   0.04450839  0.02569694 -0.00000000       0.036
   0.07418066  0.02569694 -0.00000000       0.071
   0.10385292  0.02569694 -0.00000000       0.071
   0.13352518  0.02569694 -0.00000000       0.071
   0.16319745  0.02569694 -0.00000000       0.071
   0.19286971  0.02569694 -0.00000000       0.036
   0.08901679  0.05139388 -0.00000000       0.036
   0.11868905  0.05139388 -0.00000000       0.071
   0.14836132  0.05139388 -0.00000000       0.071
   0.17803358  0.05139388 -0.00000000       0.071
   0.13352518  0.07709081 -0.00000000       0.036
   0.16319745  0.07709081 -0.00000000       0.071
   0.19286971  0.07709081 -0.00000000       0.036
   0.17803358  0.10278775 -0.00000000       0.036
 
 k-points in reciprocal lattice and weights: K-Spacing Value to Generate K-Mesh: 0.02
   0.00000000  0.00000000  0.00000000       0.006
   0.07692308  0.00000000  0.00000000       0.036
   0.15384615  0.00000000  0.00000000       0.036
   0.23076923  0.00000000  0.00000000       0.036
   0.30769231  0.00000000  0.00000000       0.036
   0.38461538  0.00000000  0.00000000       0.036
   0.46153846  0.00000000  0.00000000       0.036
   0.07692308  0.07692308  0.00000000       0.036
   0.15384615  0.07692308  0.00000000       0.071
   0.23076923  0.07692308  0.00000000       0.071
   0.30769231  0.07692308  0.00000000       0.071
   0.38461538  0.07692308  0.00000000       0.071
   0.46153846  0.07692308  0.00000000       0.036
   0.15384615  0.15384615 -0.00000000       0.036
   0.23076923  0.15384615  0.00000000       0.071
   0.30769231  0.15384615  0.00000000       0.071
   0.38461538  0.15384615  0.00000000       0.071
   0.23076923  0.23076923  0.00000000       0.036
   0.30769231  0.23076923 -0.00000000       0.071
   0.38461538  0.23076923  0.00000000       0.036
   0.30769231  0.30769231  0.00000000       0.036
 
 position of ions in fractional coordinates (direct lattice) 
   0.33333300  0.66666700  0.43207824
   0.00000000  0.00000000  0.50139218
   0.33333300  0.66666700  0.53574147
   0.00000000  0.00000000  0.60441847
   0.33333300  0.66666700  0.63873171
   0.00000000  0.00000000  0.70726990
   0.33333300  0.66666700  0.74125129
   0.66666700  0.33333300  0.46703398
   0.66666700  0.33333300  0.57007803
   0.66666700  0.33333300  0.67301523
   0.66666700  0.33333300  0.77363476
   0.00000000  0.00000000  0.45098255
   0.00000000  0.00000000  0.55397427
   0.00000000  0.00000000  0.65694391
   0.00000000  0.00000000  0.76052995
   0.66666700  0.33333300  0.51963271
   0.66666700  0.33333300  0.62264056
   0.66666700  0.33333300  0.72556817
   0.33333300  0.66666700  0.48529246
   0.33333300  0.66666700  0.58831275
   0.33333300  0.66666700  0.69123060
   0.00000000  0.00000000  0.22725904
   0.00000000  0.00000000  0.32064025
   0.00000000  0.00000000  0.41287959
   0.66666700  0.33333300  0.28958818
   0.66666700  0.33333300  0.38313221
   0.33333300  0.66666700  0.25867208
   0.33333300  0.66666700  0.35186846
 
 position of ions in cartesian coordinates  (Angst):
   0.86414036  1.49673776 31.01096208
   0.00000000  0.00000000 35.98573663
   0.86414036  1.49673776 38.45104158
   0.00000000  0.00000000 43.38010172
   0.86414036  1.49673776 45.84281899
   0.00000000  0.00000000 50.76191742
   0.86414036  1.49673776 53.20081672
   1.72828331 -0.00000150 33.51979229
   1.72828331 -0.00000150 40.91543258
   1.72828331 -0.00000150 48.30340312
   1.72828331 -0.00000150 55.52503197
   0.00000000  0.00000000 32.36775466
   0.00000000  0.00000000 39.75963939
   0.00000000  0.00000000 47.14993874
   0.00000000  0.00000000 54.58447815
   1.72828331 -0.00000150 37.29488911
   1.72828331 -0.00000150 44.68793124
   1.72828331 -0.00000150 52.07521397
   0.86414036  1.49673776 34.83023338
   0.86414036  1.49673776 42.22416775
   0.86414036  1.49673776 49.61075024
   0.00000000  0.00000000 16.31075259
   0.00000000  0.00000000 23.01287502
   0.00000000  0.00000000 29.63304320
   1.72828331 -0.00000150 20.78421697
   1.72828331 -0.00000150 27.49802481
   0.86414036  1.49673776 18.56531846
   0.86414036  1.49673776 25.25417459
 


--------------------------------------------------------------------------------------------------------


 k-point  1 :   0.0000 0.0000 0.0000  plane waves:   15195
 k-point  2 :   0.0769 0.0000 0.0000  plane waves:   15191
 k-point  3 :   0.1538 0.0000 0.0000  plane waves:   15151
 k-point  4 :   0.2308 0.0000 0.0000  plane waves:   15098
 k-point  5 :   0.3077 0.0000 0.0000  plane waves:   15018
 k-point  6 :   0.3846 0.0000 0.0000  plane waves:   14924
 k-point  7 :   0.4615 0.0000 0.0000  plane waves:   14918
 k-point  8 :   0.0769 0.0769 0.0000  plane waves:   15159
 k-point  9 :   0.1538 0.0769 0.0000  plane waves:   15110
 k-point 10 :   0.2308 0.0769 0.0000  plane waves:   15023
 k-point 11 :   0.3077 0.0769 0.0000  plane waves:   14988
 k-point 12 :   0.3846 0.0769 0.0000  plane waves:   14920
 k-point 13 :   0.4615 0.0769 0.0000  plane waves:   14870
 k-point 14 :   0.1538 0.1538-0.0000  plane waves:   15049
 k-point 15 :   0.2308 0.1538 0.0000  plane waves:   14996
 k-point 16 :   0.3077 0.1538 0.0000  plane waves:   14962
 k-point 17 :   0.3846 0.1538 0.0000  plane waves:   14900
 k-point 18 :   0.2308 0.2308 0.0000  plane waves:   14988
 k-point 19 :   0.3077 0.2308-0.0000  plane waves:   14905
 k-point 20 :   0.3846 0.2308 0.0000  plane waves:   14956
 k-point 21 :   0.3077 0.3077 0.0000  plane waves:   14980

 maximum and minimum number of plane-waves per node :      3806     3688

 maximum number of plane-waves:     15195
 maximum index in each direction: 
   IXMAX=    5   IYMAX=    5   IZMAX=  133
   IXMIN=   -6   IYMIN=   -5   IZMIN= -133


 parallel 3D FFT for wavefunctions:
    minimum data exchange during FFTs selected (reduces bandwidth)
 parallel 3D FFT for charge:
    minimum data exchange during FFTs selected (reduces bandwidth)


 total amount of memory used by VASP MPI-rank0   107118. kBytes
=======================================================================

   base      :      30000. kBytes
   nonl-proj :      17024. kBytes
   fftplans  :      24969. kBytes
   grid      :      13079. kBytes
   one-center:         21. kBytes
   wavefun   :      22025. kBytes
 
     INWAV:  cpu time    0.0001: real time    0.0001
 initial charge density was supplied:
 number of electron     107.0000000 magnetization 
 keeping initial charge density in first step


--------------------------------------------------------------------------------------------------------


 Maximum index for augmentation-charges        11762 (set IRDMAX)


--------------------------------------------------------------------------------------------------------


 First call to EWALD:  gamma=   0.215
 Maximum number of real-space cells 8x 8x 1
 Maximum number of reciprocal cells 1x 1x20

    FEWALD:  cpu time    0.0018: real time    0.0018


--------------------------------------- Iteration      1(   1)  ---------------------------------------


    POTLOK:  cpu time    0.0725: real time    0.0731
    SETDIJ:  cpu time    0.1961: real time    0.1968
     EDDAV:  cpu time    5.6719: real time    5.9027
       DOS:  cpu time    0.0023: real time    0.0027
    --------------------------------------------
      LOOP:  cpu time    5.9429: real time    6.1753

 eigenvalue-minimisations  :  2920
 total energy-change (2. order) : 0.6965480E+03  (-0.4374465E+04)
 number of electron     107.0000000 magnetization 
 augmentation part      107.0000000 magnetization 

 Free energy of the ion-electron system (eV)
  ---------------------------------------------------
  alpha Z        PSCENC =        30.41231036
  Ewald energy   TEWEN  =    188388.73312268
  -Hartree energ DENC   =   -193686.34445942
  -exchange      EXHF   =         0.00000000
  -V(xc)+E(xc)   XCENC  =        62.84429296
  PAW double counting   =      3672.26887337    -3361.13693519
  entropy T*S    EENTRO =        -0.00889019
  eigenvalues    EBANDS =       229.04403224
  atomic energy  EATOM  =      5360.73568985
  Solvation  Ediel_sol  =         0.00000000
  ---------------------------------------------------
  free energy    TOTEN  =       696.54803668 eV

  energy without entropy =      696.55692687  energy(sigma->0) =      696.55248177


--------------------------------------------------------------------------------------------------------




--------------------------------------- Iteration      1(   2)  ---------------------------------------


     EDDAV:  cpu time    7.4910: real time    7.5271
       DOS:  cpu time    0.0032: real time    0.0032
    --------------------------------------------
      LOOP:  cpu time    7.4942: real time    7.5304

 eigenvalue-minimisations  :  3796
 total energy-change (2. order) :-0.7324697E+03  (-0.6949229E+03)
 number of electron     107.0000000 magnetization 
 augmentation part      107.0000000 magnetization 

 Free energy of the ion-electron system (eV)
  ---------------------------------------------------
  alpha Z        PSCENC =        30.41231036
  Ewald energy   TEWEN  =    188388.73312268
  -Hartree energ DENC   =   -193686.34445942
  -exchange      EXHF   =         0.00000000
  -V(xc)+E(xc)   XCENC  =        62.84429296
  PAW double counting   =      3672.26887337    -3361.13693519
  entropy T*S    EENTRO =        -0.00796625
  eigenvalues    EBANDS =      -503.42661560
  atomic energy  EATOM  =      5360.73568985
  Solvation  Ediel_sol  =         0.00000000
  ---------------------------------------------------
  free energy    TOTEN  =       -35.92168723 eV

  energy without entropy =      -35.91372098  energy(sigma->0) =      -35.91770411


--------------------------------------------------------------------------------------------------------




--------------------------------------- Iteration      1(   3)  ---------------------------------------


     EDDAV:  cpu time    6.6082: real time    6.6250
       DOS:  cpu time    0.0012: real time    0.0012
    --------------------------------------------
      LOOP:  cpu time    6.6095: real time    6.6262

 eigenvalue-minimisations  :  3464
 total energy-change (2. order) :-0.1097132E+03  (-0.1065668E+03)
 number of electron     107.0000000 magnetization 
 augmentation part      107.0000000 magnetization 

 Free energy of the ion-electron system (eV)
  ---------------------------------------------------
  alpha Z        PSCENC =        30.41231036
  Ewald energy   TEWEN  =    188388.73312268
  -Hartree energ DENC   =   -193686.34445942
  -exchange      EXHF   =         0.00000000
  -V(xc)+E(xc)   XCENC  =        62.84429296
  PAW double counting   =      3672.26887337    -3361.13693519
  entropy T*S    EENTRO =        -0.02022087
  eigenvalues    EBANDS =      -613.12760782
  atomic energy  EATOM  =      5360.73568985
  Solvation  Ediel_sol  =         0.00000000
  ---------------------------------------------------
  free energy    TOTEN  =      -145.63493407 eV

  energy without entropy =     -145.61471320  energy(sigma->0) =     -145.62482363


--------------------------------------------------------------------------------------------------------




--------------------------------------- Iteration      1(   4)  ---------------------------------------


     EDDAV:  cpu time    6.6753: real time    6.6884
       DOS:  cpu time    0.0014: real time    0.0014
    --------------------------------------------
      LOOP:  cpu time    6.6767: real time    6.6898

 eigenvalue-minimisations  :  3440
 total energy-change (2. order) :-0.3953375E+01  (-0.3928983E+01)
 number of electron     107.0000000 magnetization 
 augmentation part      107.0000000 magnetization 

 Free energy of the ion-electron system (eV)
  ---------------------------------------------------
  alpha Z        PSCENC =        30.41231036
  Ewald energy   TEWEN  =    188388.73312268
  -Hartree energ DENC   =   -193686.34445942
  -exchange      EXHF   =         0.00000000
  -V(xc)+E(xc)   XCENC  =        62.84429296
  PAW double counting   =      3672.26887337    -3361.13693519
  entropy T*S    EENTRO =        -0.02193986
  eigenvalues    EBANDS =      -617.07926431
  atomic energy  EATOM  =      5360.73568985
  Solvation  Ediel_sol  =         0.00000000
  ---------------------------------------------------
  free energy    TOTEN  =      -149.58830954 eV

  energy without entropy =     -149.56636969  energy(sigma->0) =     -149.57733962


--------------------------------------------------------------------------------------------------------




--------------------------------------- Iteration      1(   5)  ---------------------------------------


     EDDAV:  cpu time    7.8852: real time    7.9011
       DOS:  cpu time    0.0011: real time    0.0011
    --------------------------------------------
      LOOP:  cpu time    7.8863: real time    7.9022

 eigenvalue-minimisations  :  3984
 total energy-change (2. order) :-0.1486266E+00  (-0.1484812E+00)
 number of electron     107.0000000 magnetization 
 augmentation part      107.0000000 magnetization 

 Free energy of the ion-electron system (eV)
  ---------------------------------------------------
  alpha Z        PSCENC =        30.41231036
  Ewald energy   TEWEN  =    188388.73312268
  -Hartree energ DENC   =   -193686.34445942
  -exchange      EXHF   =         0.00000000
  -V(xc)+E(xc)   XCENC  =        62.84429296
  PAW double counting   =      3672.26887337    -3361.13693519
  entropy T*S    EENTRO =        -0.02168821
  eigenvalues    EBANDS =      -617.22814257
  atomic energy  EATOM  =      5360.73568985
  Solvation  Ediel_sol  =         0.00000000
  ---------------------------------------------------
  free energy    TOTEN  =      -149.73693615 eV

  energy without entropy =     -149.71524795  energy(sigma->0) =     -149.72609205


--------------------------------------------------------------------------------------------------------




--------------------------------------- Iteration      1(   6)  ---------------------------------------


     EDDAV:  cpu time    7.6194: real time    7.6352
       DOS:  cpu time    0.0012: real time    0.0012
    --------------------------------------------
      LOOP:  cpu time    7.6207: real time    7.6364

 eigenvalue-minimisations  :  3952
 total energy-change (2. order) :-0.4577754E-02  (-0.4576772E-02)
 number of electron     107.0000000 magnetization 
 augmentation part      107.0000000 magnetization 

 Free energy of the ion-electron system (eV)
  ---------------------------------------------------
  alpha Z        PSCENC =        30.41231036
  Ewald energy   TEWEN  =    188388.73312268
  -Hartree energ DENC   =   -193686.34445942
  -exchange      EXHF   =         0.00000000
  -V(xc)+E(xc)   XCENC  =        62.84429296
  PAW double counting   =      3672.26887337    -3361.13693519
  entropy T*S    EENTRO =        -0.02168352
  eigenvalues    EBANDS =      -617.23272501
  atomic energy  EATOM  =      5360.73568985
  Solvation  Ediel_sol  =         0.00000000
  ---------------------------------------------------
  free energy    TOTEN  =      -149.74151390 eV

  energy without entropy =     -149.71983039  energy(sigma->0) =     -149.73067215


--------------------------------------------------------------------------------------------------------




--------------------------------------- Iteration      1(   7)  ---------------------------------------


     EDDAV:  cpu time    7.5545: real time    7.5698
       DOS:  cpu time    0.0030: real time    0.0030
    --------------------------------------------
      LOOP:  cpu time    7.5575: real time    7.5728

 eigenvalue-minimisations  :  4240
 total energy-change (2. order) :-0.2202003E-03  (-0.2201873E-03)
 number of electron     107.0000000 magnetization 
 augmentation part      107.0000000 magnetization 

 Free energy of the ion-electron system (eV)
  ---------------------------------------------------
  alpha Z        PSCENC =        30.41231036
  Ewald energy   TEWEN  =    188388.73312268
  -Hartree energ DENC   =   -193686.34445942
  -exchange      EXHF   =         0.00000000
  -V(xc)+E(xc)   XCENC  =        62.84429296
  PAW double counting   =      3672.26887337    -3361.13693519
  entropy T*S    EENTRO =        -0.02168324
  eigenvalues    EBANDS =      -617.23294548
  atomic energy  EATOM  =      5360.73568985
  Solvation  Ediel_sol  =         0.00000000
  ---------------------------------------------------
  free energy    TOTEN  =      -149.74173410 eV

  energy without entropy =     -149.72005086  energy(sigma->0) =     -149.73089248


--------------------------------------------------------------------------------------------------------




--------------------------------------- Iteration      1(   8)  ---------------------------------------


     EDDAV:  cpu time    7.7360: real time    7.7513
       DOS:  cpu time    0.0013: real time    0.0013
    --------------------------------------------
      LOOP:  cpu time    7.7372: real time    7.7526

 eigenvalue-minimisations  :  4016
 total energy-change (2. order) :-0.6454587E-05  (-0.6454614E-05)
 number of electron     107.0000000 magnetization 
 augmentation part      107.0000000 magnetization 

 Free energy of the ion-electron system (eV)
  ---------------------------------------------------
  alpha Z        PSCENC =        30.41231036
  Ewald energy   TEWEN  =    188388.73312268
  -Hartree energ DENC   =   -193686.34445942
  -exchange      EXHF   =         0.00000000
  -V(xc)+E(xc)   XCENC  =        62.84429296
  PAW double counting   =      3672.26887337    -3361.13693519
  entropy T*S    EENTRO =        -0.02168324
  eigenvalues    EBANDS =      -617.23295194
  atomic energy  EATOM  =      5360.73568985
  Solvation  Ediel_sol  =         0.00000000
  ---------------------------------------------------
  free energy    TOTEN  =      -149.74174056 eV

  energy without entropy =     -149.72005732  energy(sigma->0) =     -149.73089894


--------------------------------------------------------------------------------------------------------




--------------------------------------- Iteration      1(   9)  ---------------------------------------


     EDDAV:  cpu time    7.2996: real time    7.3135
       DOS:  cpu time    0.0012: real time    0.0012
    --------------------------------------------
      LOOP:  cpu time    7.3008: real time    7.3147

 eigenvalue-minimisations  :  4144
 total energy-change (2. order) :-0.5424281E-06  (-0.5425095E-06)
 number of electron     107.0000000 magnetization 
 augmentation part      107.0000000 magnetization 

 Free energy of the ion-electron system (eV)
  ---------------------------------------------------
  alpha Z        PSCENC =        30.41231036
  Ewald energy   TEWEN  =    188388.73312268
  -Hartree energ DENC   =   -193686.34445942
  -exchange      EXHF   =         0.00000000
  -V(xc)+E(xc)   XCENC  =        62.84429296
  PAW double counting   =      3672.26887337    -3361.13693519
  entropy T*S    EENTRO =        -0.02168324
  eigenvalues    EBANDS =      -617.23295249
  atomic energy  EATOM  =      5360.73568985
  Solvation  Ediel_sol  =         0.00000000
  ---------------------------------------------------
  free energy    TOTEN  =      -149.74174110 eV

  energy without entropy =     -149.72005787  energy(sigma->0) =     -149.73089948


--------------------------------------------------------------------------------------------------------




--------------------------------------- Iteration      1(  10)  ---------------------------------------


     EDDAV:  cpu time    6.2347: real time    6.2467
       DOS:  cpu time    0.0014: real time    0.0014
    --------------------------------------------
      LOOP:  cpu time    6.2361: real time    6.2481

 eigenvalue-minimisations  :  3008
 total energy-change (2. order) :-0.5845504E-07  (-0.5839773E-07)
 number of electron     107.0000000 magnetization 
 augmentation part      107.0000000 magnetization 

 Free energy of the ion-electron system (eV)
  ---------------------------------------------------
  alpha Z        PSCENC =        30.41231036
  Ewald energy   TEWEN  =    188388.73312268
  -Hartree energ DENC   =   -193686.34445942
  -exchange      EXHF   =         0.00000000
  -V(xc)+E(xc)   XCENC  =        62.84429296
  PAW double counting   =      3672.26887337    -3361.13693519
  entropy T*S    EENTRO =        -0.02168324
  eigenvalues    EBANDS =      -617.23295255
  atomic energy  EATOM  =      5360.73568985
  Solvation  Ediel_sol  =         0.00000000
  ---------------------------------------------------
  free energy    TOTEN  =      -149.74174116 eV

  energy without entropy =     -149.72005792  energy(sigma->0) =     -149.73089954


--------------------------------------------------------------------------------------------------------




--------------------------------------- Iteration      1(  11)  ---------------------------------------


     EDDAV:  cpu time    5.4111: real time    5.4217
       DOS:  cpu time    0.0013: real time    0.0013
    --------------------------------------------
      LOOP:  cpu time    5.4124: real time    5.4229

 eigenvalue-minimisations  :  2304
 total energy-change (2. order) :-0.8843926E-08  (-0.8804262E-08)
 number of electron     107.0000000 magnetization 
 augmentation part      107.0000000 magnetization 

 Free energy of the ion-electron system (eV)
  ---------------------------------------------------
  alpha Z        PSCENC =        30.41231036
  Ewald energy   TEWEN  =    188388.73312268
  -Hartree energ DENC   =   -193686.34445942
  -exchange      EXHF   =         0.00000000
  -V(xc)+E(xc)   XCENC  =        62.84429296
  PAW double counting   =      3672.26887337    -3361.13693519
  entropy T*S    EENTRO =        -0.02168324
  eigenvalues    EBANDS =      -617.23295256
  atomic energy  EATOM  =      5360.73568985
  Solvation  Ediel_sol  =         0.00000000
  ---------------------------------------------------
  free energy    TOTEN  =      -149.74174117 eV

  energy without entropy =     -149.72005793  energy(sigma->0) =     -149.73089955


--------------------------------------------------------------------------------------------------------




 average (electrostatic) potential at core
  the test charge radii are     0.7215  1.0714  1.0406
  (the norm of the test charge is              1.0000)
       1 -76.0755       2 -75.1067       3 -74.6386       4 -73.7043       5 -73.2409
       6 -72.3263       7 -71.9273       8 -75.5738       9 -74.1706      10 -72.7822
      11 -71.8837      12 -57.7227      13 -56.3429      14 -54.9451      15 -53.0123
      16 -56.8141      17 -55.4078      18 -53.9479      19 -57.2797      20 -55.8783
      21 -54.4762      22 -79.6101      23 -79.5064      24 -80.5451      25 -79.5046
      26 -79.4951      27 -79.4884      28 -79.5152
 
 
 
 E-fermi :   1.1310     XC(G=0):  -6.1958     alpha+bet : -8.2143


 k-point     1 :       0.0000    0.0000    0.0000
  band No.  band energies     occupation 
      1     -19.8841      2.00000
      2     -19.3979      2.00000
      3     -18.9281      2.00000
      4     -18.4590      2.00000
      5     -17.9916      2.00000
      6     -17.5274      2.00000
      7     -17.0659      2.00000
      8     -16.6043      2.00000
      9     -16.1346      2.00000
     10     -15.5912      2.00000
     11     -14.5832      2.00000
     12      -9.5306      2.00000
     13      -9.2092      2.00000
     14      -8.5702      2.00000
     15      -7.7325      2.00000
     16      -6.8886      2.00000
     17      -6.3790      2.00000
     18      -5.7421      2.00000
     19      -5.2874      2.00000
     20      -4.7585      2.00000
     21      -4.2481      2.00000
     22      -3.8926      2.00000
     23      -3.4581      2.00000
     24      -3.3648      2.00000
     25      -3.3648      2.00000
     26      -3.0859      2.00000
     27      -3.0859      2.00000
     28      -2.8996      2.00000
     29      -2.6577      2.00000
     30      -2.6577      2.00000
     31      -2.5032      2.00000
     32      -2.2305      2.00000
     33      -2.1901      2.00000
     34      -2.1901      2.00000
     35      -1.7226      2.00000
     36      -1.7226      2.00000
     37      -1.4903      2.00000
     38      -1.2578      2.00000
     39      -1.2578      2.00000
     40      -0.7972      2.00000
     41      -0.7971      2.00000
     42      -0.6819      2.00000
     43      -0.5577      2.00000
     44      -0.3385      2.00000
     45      -0.3385      2.00000
     46       0.1289      2.00000
     47       0.1289      2.00000
     48       0.6382      2.00000
     49       0.6382      2.00000
     50       0.9159      2.00000
     51       0.9497      2.00000
     52       1.3999      0.00000
     53       1.3999      0.00000
     54       2.3555      0.00000
     55       2.9552      0.00000
     56       3.7813      0.00000
     57       4.2145      0.00000
     58       4.5659      0.00000
     59       5.1134      0.00000
     60       5.4939      0.00000
     61       5.6244      0.00000
     62       6.1570      0.00000
     63       6.5079      0.00000
     64       6.7375      0.00000
     65       7.0733      0.00000
     66       7.3864      0.00000
     67       7.6553      0.00000
     68       8.1951      0.00000

 k-point     2 :       0.0769    0.0000    0.0000
  band No.  band energies     occupation 
      1     -19.8340      2.00000
      2     -19.3550      2.00000
      3     -18.8878      2.00000
      4     -18.4191      2.00000
      5     -17.9518      2.00000
      6     -17.4875      2.00000
      7     -17.0260      2.00000
      8     -16.5646      2.00000
      9     -16.0955      2.00000
     10     -15.5554      2.00000
     11     -14.5578      2.00000
     12      -9.4025      2.00000
     13      -9.0839      2.00000
     14      -8.4473      2.00000
     15      -7.6152      2.00000
     16      -6.7890      2.00000
     17      -6.2992      2.00000
     18      -5.6690      2.00000
     19      -5.2245      2.00000
     20      -4.7270      2.00000
     21      -4.2221      2.00000
     22      -3.8597      2.00000
     23      -3.6259      2.00000
     24      -3.4731      2.00000
     25      -3.4112      2.00000
     26      -3.3110      2.00000
     27      -3.1284      2.00000
     28      -2.9560      2.00000
     29      -2.8257      2.00000
     30      -2.6990      2.00000
     31      -2.4583      2.00000
     32      -2.3621      2.00000
     33      -2.2385      2.00000
     34      -2.2315      2.00000
     35      -1.9486      2.00000
     36      -1.7640      2.00000
     37      -1.5605      2.00000
     38      -1.4373      2.00000
     39      -1.2992      2.00000
     40      -1.0285      2.00000
     41      -0.8385      2.00000
     42      -0.6395      2.00000
     43      -0.5332      2.00000
     44      -0.5031      2.00000
     45      -0.3798      2.00000
     46      -0.0903      2.00000
     47       0.0878      2.00000
     48       0.3904      2.00000
     49       0.5984      2.00000
     50       0.9549      2.00000
     51       1.1424      0.74681
     52       1.2587      0.00030
     53       1.3724      0.00000
     54       2.5681      0.00000
     55       3.2087      0.00000
     56       4.0207      0.00000
     57       4.3908      0.00000
     58       4.8268      0.00000
     59       5.3786      0.00000
     60       5.6132      0.00000
     61       5.8899      0.00000
     62       6.4197      0.00000
     63       6.6114      0.00000
     64       6.9987      0.00000
     65       7.1789      0.00000
     66       7.6480      0.00000
     67       7.7586      0.00000
     68       8.2236      0.00000

 k-point     3 :       0.1538    0.0000    0.0000
  band No.  band energies     occupation 
      1     -19.6910      2.00000
      2     -19.2341      2.00000
      3     -18.7740      2.00000
      4     -18.3064      2.00000
      5     -17.8390      2.00000
      6     -17.3746      2.00000
      7     -16.9132      2.00000
      8     -16.4521      2.00000
      9     -15.9846      2.00000
     10     -15.4537      2.00000
     11     -14.4867      2.00000
     12      -9.0205      2.00000
     13      -8.7109      2.00000
     14      -8.0821      2.00000
     15      -7.2685      2.00000
     16      -6.5096      2.00000
     17      -6.0758      2.00000
     18      -5.5034      2.00000
     19      -5.0575      2.00000
     20      -4.7234      2.00000
     21      -4.3714      2.00000
     22      -4.0632      2.00000
     23      -3.9606      2.00000
     24      -3.6145      2.00000
     25      -3.5364      2.00000
     26      -3.5051      2.00000
     27      -3.3259      2.00000
     28      -3.2436      2.00000
     29      -3.0067      2.00000
     30      -2.8735      2.00000
     31      -2.8112      2.00000
     32      -2.4489      2.00000
     33      -2.3883      2.00000
     34      -2.3436      2.00000
     35      -2.0439      2.00000
     36      -1.9421      2.00000
     37      -1.8761      2.00000
     38      -1.7441      2.00000
     39      -1.4740      2.00000
     40      -1.4114      2.00000
     41      -1.0174      2.00000
     42      -0.9507      2.00000
     43      -0.8448      2.00000
     44      -0.5199      2.00000
     45      -0.4918      2.00000
     46      -0.1580      2.00000
     47      -0.0238      2.00000
     48       0.0019      2.00000
     49       0.4904      2.00000
     50       0.7047      2.00000
     51       1.1380      0.84373
     52       1.2969      0.00000
     53       1.5992      0.00000
     54       3.1015      0.00000
     55       3.8088      0.00000
     56       4.5257      0.00000
     57       4.8760      0.00000
     58       5.4409      0.00000
     59       5.5737      0.00000
     60       5.8342      0.00000
     61       6.0266      0.00000
     62       6.1752      0.00000
     63       6.4811      0.00000
     64       6.5434      0.00000
     65       7.0007      0.00000
     66       7.0679      0.00000
     67       7.3360      0.00000
     68       7.6006      0.00000

 k-point     4 :       0.2308    0.0000    0.0000
  band No.  band energies     occupation 
      1     -19.4780      2.00000
      2     -19.0590      2.00000
      3     -18.6080      2.00000
      4     -18.1410      2.00000
      5     -17.6736      2.00000
      6     -17.2089      2.00000
      7     -16.7475      2.00000
      8     -16.2871      2.00000
      9     -15.8212      2.00000
     10     -15.3034      2.00000
     11     -14.3849      2.00000
     12      -8.3946      2.00000
     13      -8.1015      2.00000
     14      -7.4889      2.00000
     15      -6.7116      2.00000
     16      -6.1954      2.00000
     17      -5.7569      2.00000
     18      -5.5445      2.00000
     19      -5.1557      2.00000
     20      -4.7589      2.00000
     21      -4.7010      2.00000
     22      -4.3585      2.00000
     23      -4.2405      2.00000
     24      -3.8184      2.00000
     25      -3.7742      2.00000
     26      -3.7052      2.00000
     27      -3.4001      2.00000
     28      -3.3106      2.00000
     29      -3.2841      2.00000
     30      -3.0440      2.00000
     31      -2.9636      2.00000
     32      -2.8136      2.00000
     33      -2.7736      2.00000
     34      -2.4960      2.00000
     35      -2.3165      2.00000
     36      -2.2255      2.00000
     37      -2.0285      2.00000
     38      -1.8475      2.00000
     39      -1.5638      2.00000
     40      -1.4816      2.00000
     41      -1.4383      2.00000
     42      -1.3452      2.00000
     43      -1.1031      2.00000
     44      -0.8326      2.00000
     45      -0.6441      2.00000
     46      -0.2980      2.00000
     47      -0.1755      2.00000
     48       0.3099      2.00000
     49       0.3435      2.00000
     50       0.3877      2.00000
     51       1.1098      1.45168
     52       1.1923      0.08281
     53       2.1123      0.00000
     54       2.9982      0.00000
     55       3.4294      0.00000
     56       3.9421      0.00000
     57       4.0822      0.00000
     58       4.5574      0.00000
     59       4.9258      0.00000
     60       5.3119      0.00000
     61       5.6344      0.00000
     62       6.0170      0.00000
     63       6.2030      0.00000
     64       6.6248      0.00000
     65       6.7799      0.00000
     66       7.0015      0.00000
     67       7.2158      0.00000
     68       7.2899      0.00000

 k-point     5 :       0.3077    0.0000    0.0000
  band No.  band energies     occupation 
      1     -19.2333      2.00000
      2     -18.8685      2.00000
      3     -18.4233      2.00000
      4     -17.9562      2.00000
      5     -17.4887      2.00000
      6     -17.0237      2.00000
      7     -16.5623      2.00000
      8     -16.1027      2.00000
      9     -15.6377      2.00000
     10     -15.1331      2.00000
     11     -14.2755      2.00000
     12      -7.5917      2.00000
     13      -7.2897      2.00000
     14      -6.7240      2.00000
     15      -6.3457      2.00000
     16      -6.0754      2.00000
     17      -5.8929      2.00000
     18      -5.5504      2.00000
     19      -5.1935      2.00000
     20      -5.0480      2.00000
     21      -4.7519      2.00000
     22      -4.5705      2.00000
     23      -4.1968      2.00000
     24      -4.0337      2.00000
     25      -3.8758      2.00000
     26      -3.7485      2.00000
     27      -3.6720      2.00000
     28      -3.5593      2.00000
     29      -3.4598      2.00000
     30      -3.2185      2.00000
     31      -3.1187      2.00000
     32      -2.9864      2.00000
     33      -2.7224      2.00000
     34      -2.6511      2.00000
     35      -2.5029      2.00000
     36      -2.3492      2.00000
     37      -2.1836      2.00000
     38      -2.1327      2.00000
     39      -1.9089      2.00000
     40      -1.7189      2.00000
     41      -1.5123      2.00000
     42      -1.2581      2.00000
     43      -1.0546      2.00000
     44      -0.7990      2.00000
     45      -0.7097      2.00000
     46      -0.5707      2.00000
     47      -0.3298      2.00000
     48       0.0673      2.00000
     49       0.1936      2.00000
     50       0.5679      2.00000
     51       0.8744      2.00000
     52       1.0746      1.88958
     53       1.0839      1.81714
     54       1.4481      0.00000
     55       1.8953      0.00000
     56       2.6480      0.00000
     57       3.1620      0.00000
     58       3.7876      0.00000
     59       4.6667      0.00000
     60       5.1125      0.00000
     61       5.3307      0.00000
     62       5.9418      0.00000
     63       6.2295      0.00000
     64       6.3269      0.00000
     65       6.6229      0.00000
     66       6.7033      0.00000
     67       6.8194      0.00000
     68       7.2268      0.00000

 k-point     6 :       0.3846    0.0000    0.0000
  band No.  band energies     occupation 
      1     -19.0107      2.00000
      2     -18.7099      2.00000
      3     -18.2624      2.00000
      4     -17.7947      2.00000
      5     -17.3271      2.00000
      6     -16.8618      2.00000
      7     -16.4004      2.00000
      8     -15.9417      2.00000
      9     -15.4767      2.00000
     10     -14.9816      2.00000
     11     -14.1845      2.00000
     12      -7.2481      2.00000
     13      -6.6356      2.00000
     14      -6.2806      2.00000
     15      -6.1679      2.00000
     16      -5.9320      2.00000
     17      -5.6637      2.00000
     18      -5.5043      2.00000
     19      -5.1645      2.00000
     20      -4.9345      2.00000
     21      -4.7232      2.00000
     22      -4.4617      2.00000
     23      -4.2302      2.00000
     24      -4.0113      2.00000
     25      -3.9819      2.00000
     26      -3.8629      2.00000
     27      -3.7298      2.00000
     28      -3.6862      2.00000
     29      -3.3835      2.00000
     30      -3.2469      2.00000
     31      -3.2426      2.00000
     32      -2.8867      2.00000
     33      -2.8124      2.00000
     34      -2.7749      2.00000
     35      -2.6900      2.00000
     36      -2.3681      2.00000
     37      -2.3074      2.00000
     38      -1.9681      2.00000
     39      -1.8427      2.00000
     40      -1.5918      2.00000
     41      -1.4715      2.00000
     42      -1.3819      2.00000
     43      -1.3743      2.00000
     44      -1.2697      2.00000
     45      -1.0220      2.00000
     46      -0.9227      2.00000
     47      -0.7466      2.00000
     48      -0.4531      2.00000
     49      -0.3313      2.00000
     50      -0.0478      2.00000
     51       0.0738      2.00000
     52       0.4750      2.00000
     53       0.7649      2.00000
     54       0.9960      1.99987
     55       1.0377      1.99168
     56       1.8115      0.00000
     57       2.2770      0.00000
     58       3.2104      0.00000
     59       4.0138      0.00000
     60       4.8397      0.00000
     61       5.3460      0.00000
     62       5.7573      0.00000
     63       5.8769      0.00000
     64       6.0715      0.00000
     65       6.1760      0.00000
     66       6.4653      0.00000
     67       6.7799      0.00000
     68       6.8740      0.00000

 k-point     7 :       0.4615    0.0000    0.0000
  band No.  band energies     occupation 
      1     -18.8734      2.00000
      2     -18.6230      2.00000
      3     -18.1680      2.00000
      4     -17.6998      2.00000
      5     -17.2322      2.00000
      6     -16.7667      2.00000
      7     -16.3052      2.00000
      8     -15.8470      2.00000
      9     -15.3819      2.00000
     10     -14.8911      2.00000
     11     -14.1334      2.00000
     12      -7.4403      2.00000
     13      -6.8302      2.00000
     14      -6.3641      2.00000
     15      -5.8819      2.00000
     16      -5.4790      2.00000
     17      -5.3656      2.00000
     18      -4.9483      2.00000
     19      -4.8418      2.00000
     20      -4.4905      2.00000
     21      -4.4169      2.00000
     22      -4.3540      2.00000
     23      -4.0856      2.00000
     24      -4.0255      2.00000
     25      -3.8345      2.00000
     26      -3.7560      2.00000
     27      -3.6813      2.00000
     28      -3.5433      2.00000
     29      -3.3114      2.00000
     30      -3.3108      2.00000
     31      -3.2410      2.00000
     32      -2.9463      2.00000
     33      -2.8870      2.00000
     34      -2.8430      2.00000
     35      -2.8297      2.00000
     36      -2.7243      2.00000
     37      -2.3755      2.00000
     38      -2.3665      2.00000
     39      -2.1822      2.00000
     40      -1.9406      2.00000
     41      -1.9108      2.00000
     42      -1.6949      2.00000
     43      -1.6464      2.00000
     44      -1.4500      2.00000
     45      -1.4029      2.00000
     46      -1.0664      2.00000
     47      -0.9908      2.00000
     48      -0.8179      2.00000
     49      -0.5209      2.00000
     50      -0.1006      2.00000
     51      -0.0343      2.00000
     52       0.0078      2.00000
     53       0.2082      2.00000
     54       0.9471      2.00000
     55       1.0141      1.99905
     56       1.4634      0.00000
     57       1.7870      0.00000
     58       3.1408      0.00000
     59       3.4444      0.00000
     60       4.5408      0.00000
     61       4.9949      0.00000
     62       5.6519      0.00000
     63       5.7405      0.00000
     64       5.9523      0.00000
     65       6.0502      0.00000
     66       6.5081      0.00000
     67       6.5563      0.00000
     68       6.6107      0.00000

 k-point     8 :       0.0769    0.0769    0.0000
  band No.  band energies     occupation 
      1     -19.7374      2.00000
      2     -19.2730      2.00000
      3     -18.8108      2.00000
      4     -18.3428      2.00000
      5     -17.8755      2.00000
      6     -17.4111      2.00000
      7     -16.9496      2.00000
      8     -16.4885      2.00000
      9     -16.0205      2.00000
     10     -15.4867      2.00000
     11     -14.5095      2.00000
     12      -9.1474      2.00000
     13      -8.8347      2.00000
     14      -8.2032      2.00000
     15      -7.3831      2.00000
     16      -6.5986      2.00000
     17      -6.1473      2.00000
     18      -5.5465      2.00000
     19      -5.1073      2.00000
     20      -4.7041      2.00000
     21      -4.2802      2.00000
     22      -3.9416      2.00000
     23      -3.8863      2.00000
     24      -3.6318      2.00000
     25      -3.4916      2.00000
     26      -3.4506      2.00000
     27      -3.2742      2.00000
     28      -3.1736      2.00000
     29      -2.9409      2.00000
     30      -2.8293      2.00000
     31      -2.7105      2.00000
     32      -2.3619      2.00000
     33      -2.3556      2.00000
     34      -2.2348      2.00000
     35      -2.1521      2.00000
     36      -1.8900      2.00000
     37      -1.7832      2.00000
     38      -1.6370      2.00000
     39      -1.4264      2.00000
     40      -1.3101      2.00000
     41      -0.9654      2.00000
     42      -0.8612      2.00000
     43      -0.7171      2.00000
     44      -0.5007      2.00000
     45      -0.3752      2.00000
     46      -0.2761      2.00000
     47      -0.0156      2.00000
     48       0.1266      2.00000
     49       0.4917      2.00000
     50       0.8270      2.00000
     51       1.1544      0.50835
     52       1.3099      0.00000
     53       1.4626      0.00000
     54       2.9430      0.00000
     55       3.6353      0.00000
     56       4.3966      0.00000
     57       4.7371      0.00000
     58       5.2701      0.00000
     59       5.7834      0.00000
     60       5.8564      0.00000
     61       6.3496      0.00000
     62       6.6614      0.00000
     63       6.8764      0.00000
     64       7.0117      0.00000
     65       7.0610      0.00000
     66       7.1663      0.00000
     67       7.3099      0.00000
     68       7.5446      0.00000

 k-point     9 :       0.1538    0.0769    0.0000
  band No.  band energies     occupation 
      1     -19.5592      2.00000
      2     -19.1248      2.00000
      3     -18.6706      2.00000
      4     -18.2035      2.00000
      5     -17.7362      2.00000
      6     -17.2716      2.00000
      7     -16.8101      2.00000
      8     -16.3495      2.00000
      9     -15.8831      2.00000
     10     -15.3604      2.00000
     11     -14.4229      2.00000
     12      -8.6427      2.00000
     13      -8.3428      2.00000
     14      -7.7232      2.00000
     15      -6.9303      2.00000
     16      -6.2822      2.00000
     17      -5.8712      2.00000
     18      -5.4661      2.00000
     19      -5.0310      2.00000
     20      -4.7593      2.00000
     21      -4.5817      2.00000
     22      -4.2885      2.00000
     23      -4.1241      2.00000
     24      -3.7541      2.00000
     25      -3.6591      2.00000
     26      -3.6362      2.00000
     27      -3.3862      2.00000
     28      -3.2793      2.00000
     29      -3.1798      2.00000
     30      -3.1016      2.00000
     31      -2.9331      2.00000
     32      -2.6649      2.00000
     33      -2.6509      2.00000
     34      -2.4645      2.00000
     35      -2.1934      2.00000
     36      -2.0393      2.00000
     37      -1.9933      2.00000
     38      -1.7291      2.00000
     39      -1.7059      2.00000
     40      -1.5331      2.00000
     41      -1.2596      2.00000
     42      -1.1913      2.00000
     43      -1.0699      2.00000
     44      -0.7542      2.00000
     45      -0.6084      2.00000
     46      -0.1993      2.00000
     47      -0.1331      2.00000
     48       0.1816      2.00000
     49       0.2759      2.00000
     50       0.5236      2.00000
     51       1.1263      1.10597
     52       1.1983      0.05683
     53       1.9652      0.00000
     54       3.4920      0.00000
     55       4.1560      0.00000
     56       4.4727      0.00000
     57       4.7244      0.00000
     58       5.0414      0.00000
     59       5.2970      0.00000
     60       5.4565      0.00000
     61       5.8815      0.00000
     62       5.9665      0.00000
     63       6.1092      0.00000
     64       6.2447      0.00000
     65       6.5211      0.00000
     66       6.6051      0.00000
     67       6.7853      0.00000
     68       7.0951      0.00000

 k-point    10 :       0.2308    0.0769    0.0000
  band No.  band energies     occupation 
      1     -19.3296      2.00000
      2     -18.9415      2.00000
      3     -18.4947      2.00000
      4     -18.0278      2.00000
      5     -17.5603      2.00000
      6     -17.0955      2.00000
      7     -16.6341      2.00000
      8     -16.1742      2.00000
      9     -15.7089      2.00000
     10     -15.1993      2.00000
     11     -14.3169      2.00000
     12      -7.9144      2.00000
     13      -7.6291      2.00000
     14      -7.0342      2.00000
     15      -6.2946      2.00000
     16      -6.1829      2.00000
     17      -5.8101      2.00000
     18      -5.3762      2.00000
     19      -5.3485      2.00000
     20      -4.8863      2.00000
     21      -4.7555      2.00000
     22      -4.4162      2.00000
     23      -4.1810      2.00000
     24      -3.9590      2.00000
     25      -3.9090      2.00000
     26      -3.8605      2.00000
     27      -3.5921      2.00000
     28      -3.4976      2.00000
     29      -3.3934      2.00000
     30      -3.1407      2.00000
     31      -3.0257      2.00000
     32      -2.9146      2.00000
     33      -2.6754      2.00000
     34      -2.6517      2.00000
     35      -2.5114      2.00000
     36      -2.4310      2.00000
     37      -2.2031      2.00000
     38      -1.9914      2.00000
     39      -1.7455      2.00000
     40      -1.7351      2.00000
     41      -1.4612      2.00000
     42      -1.2766      2.00000
     43      -1.0302      2.00000
     44      -0.9508      2.00000
     45      -0.8174      2.00000
     46      -0.4671      2.00000
     47      -0.3347      2.00000
     48       0.0702      2.00000
     49       0.2607      2.00000
     50       0.7638      2.00000
     51       1.0567      1.96438
     52       1.1132      1.38516
     53       1.8099      0.00000
     54       2.2919      0.00000
     55       2.8886      0.00000
     56       3.0163      0.00000
     57       3.8373      0.00000
     58       4.3868      0.00000
     59       4.7647      0.00000
     60       5.0833      0.00000
     61       5.1752      0.00000
     62       5.3924      0.00000
     63       5.7501      0.00000
     64       5.9301      0.00000
     65       6.1935      0.00000
     66       6.4113      0.00000
     67       6.6504      0.00000
     68       7.0351      0.00000

 k-point    11 :       0.3077    0.0769    0.0000
  band No.  band energies     occupation 
      1     -19.0944      2.00000
      2     -18.7662      2.00000
      3     -18.3209      2.00000
      4     -17.8535      2.00000
      5     -17.3860      2.00000
      6     -16.9208      2.00000
      7     -16.4593      2.00000
      8     -16.0003      2.00000
      9     -15.5354      2.00000
     10     -15.0369      2.00000
     11     -14.2161      2.00000
     12      -7.2253      2.00000
     13      -6.7285      2.00000
     14      -6.4920      2.00000
     15      -6.2489      2.00000
     16      -6.0335      2.00000
     17      -5.7456      2.00000
     18      -5.4559      2.00000
     19      -5.2684      2.00000
     20      -4.9566      2.00000
     21      -4.6970      2.00000
     22      -4.4512      2.00000
     23      -4.2999      2.00000
     24      -4.1283      2.00000
     25      -4.0319      2.00000
     26      -3.8362      2.00000
     27      -3.7649      2.00000
     28      -3.5547      2.00000
     29      -3.3562      2.00000
     30      -3.3110      2.00000
     31      -3.2224      2.00000
     32      -3.0737      2.00000
     33      -2.8677      2.00000
     34      -2.8313      2.00000
     35      -2.5552      2.00000
     36      -2.3876      2.00000
     37      -2.2833      2.00000
     38      -1.9633      2.00000
     39      -1.9113      2.00000
     40      -1.8211      2.00000
     41      -1.5546      2.00000
     42      -1.4546      2.00000
     43      -1.1453      2.00000
     44      -0.9991      2.00000
     45      -0.6929      2.00000
     46      -0.5075      2.00000
     47      -0.3446      2.00000
     48      -0.2598      2.00000
     49      -0.0489      2.00000
     50       0.0664      2.00000
     51       0.1949      2.00000
     52       0.8646      2.00000
     53       0.9447      2.00000
     54       1.0768      1.87504
     55       1.7334      0.00000
     56       1.8909      0.00000
     57       2.8785      0.00000
     58       3.5537      0.00000
     59       4.1886      0.00000
     60       4.4312      0.00000
     61       4.7877      0.00000
     62       5.3039      0.00000
     63       5.3800      0.00000
     64       5.6975      0.00000
     65       6.0391      0.00000
     66       6.3870      0.00000
     67       6.4816      0.00000
     68       6.8019      0.00000

 k-point    12 :       0.3846    0.0769    0.0000
  band No.  band energies     occupation 
      1     -18.9118      2.00000
      2     -18.6437      2.00000
      3     -18.1920      2.00000
      4     -17.7240      2.00000
      5     -17.2564      2.00000
      6     -16.7910      2.00000
      7     -16.3295      2.00000
      8     -15.8712      2.00000
      9     -15.4061      2.00000
     10     -14.9140      2.00000
     11     -14.1446      2.00000
     12      -7.2950      2.00000
     13      -6.6984      2.00000
     14      -6.2367      2.00000
     15      -5.7858      2.00000
     16      -5.6263      2.00000
     17      -5.4302      2.00000
     18      -5.2580      2.00000
     19      -4.9564      2.00000
     20      -4.8133      2.00000
     21      -4.4771      2.00000
     22      -4.3421      2.00000
     23      -4.2603      2.00000
     24      -4.1904      2.00000
     25      -3.9501      2.00000
     26      -3.8921      2.00000
     27      -3.7512      2.00000
     28      -3.4725      2.00000
     29      -3.4154      2.00000
     30      -3.3276      2.00000
     31      -3.2694      2.00000
     32      -2.9895      2.00000
     33      -2.8605      2.00000
     34      -2.7695      2.00000
     35      -2.5195      2.00000
     36      -2.3472      2.00000
     37      -2.2811      2.00000
     38      -2.1534      2.00000
     39      -2.0599      2.00000
     40      -1.9238      2.00000
     41      -1.8581      2.00000
     42      -1.6242      2.00000
     43      -1.5676      2.00000
     44      -1.3237      2.00000
     45      -1.2993      2.00000
     46      -1.1196      2.00000
     47      -0.7984      2.00000
     48      -0.6409      2.00000
     49      -0.6259      2.00000
     50      -0.1257      2.00000
     51      -0.0475      2.00000
     52      -0.0274      2.00000
     53       0.8680      2.00000
     54       1.0067      1.99956
     55       1.0469      1.98266
     56       1.1896      0.09718
     57       2.4132      0.00000
     58       2.8175      0.00000
     59       3.8976      0.00000
     60       4.0425      0.00000
     61       4.5052      0.00000
     62       4.7735      0.00000
     63       5.2131      0.00000
[...]
     65       5.1883      0.00000
     66       6.1747      0.00000
     67       6.3990      0.00000
     68       6.6033      0.00000

 k-point    19 :       0.3077    0.2308   -0.0000
  band No.  band energies     occupation 
      1     -18.8142      2.00000
      2     -18.5714      2.00000
      3     -18.1162      2.00000
      4     -17.6480      2.00000
      5     -17.1804      2.00000
      6     -16.7149      2.00000
      7     -16.2534      2.00000
      8     -15.7953      2.00000
      9     -15.3301      2.00000
     10     -14.8397      2.00000
     11     -14.0959      2.00000
     12      -6.9250      2.00000
     13      -6.4076      2.00000
     14      -5.9440      2.00000
     15      -5.6007      2.00000
     16      -5.3878      2.00000
     17      -5.1808      2.00000
     18      -4.9752      2.00000
     19      -4.8318      2.00000
     20      -4.7018      2.00000
     21      -4.5975      2.00000
     22      -4.4727      2.00000
     23      -4.2461      2.00000
     24      -4.1603      2.00000
     25      -4.0360      2.00000
     26      -3.9056      2.00000
     27      -3.6893      2.00000
     28      -3.5673      2.00000
     29      -3.5624      2.00000
     30      -3.3995      2.00000
     31      -3.2217      2.00000
     32      -3.0907      2.00000
     33      -2.9275      2.00000
     34      -2.7444      2.00000
     35      -2.6374      2.00000
     36      -2.5444      2.00000
     37      -2.4521      2.00000
     38      -2.2443      2.00000
     39      -1.9972      2.00000
     40      -1.8526      2.00000
     41      -1.5571      2.00000
     42      -1.5483      2.00000
     43      -1.4582      2.00000
     44      -1.2780      2.00000
     45      -1.2179      2.00000
     46      -1.1345      2.00000
     47      -1.0289      2.00000
     48      -0.5978      2.00000
     49      -0.5464      2.00000
     50      -0.0540      2.00000
     51      -0.0536      2.00000
     52       0.0928      2.00000
     53       0.3629      2.00000
     54       0.4052      2.00000
     55       0.6751      2.00000
     56       1.0982      1.64622
     57       1.1184      1.27794
     58       1.5910      0.00000
     59       2.1157      0.00000
     60       2.2936      0.00000
     61       3.2336      0.00000
     62       3.4887      0.00000
     63       3.7549      0.00000
     64       4.7648      0.00000
     65       4.9773      0.00000
     66       5.5870      0.00000
     67       6.2393      0.00000
     68       6.4992      0.00000

 k-point    20 :       0.3846    0.2308    0.0000
  band No.  band energies     occupation 
      1     -18.7613      2.00000
      2     -18.5387      2.00000
      3     -18.0793      2.00000
      4     -17.6110      2.00000
      5     -17.1433      2.00000
      6     -16.6777      2.00000
      7     -16.2162      2.00000
      8     -15.7583      2.00000
      9     -15.2930      2.00000
     10     -14.8035      2.00000
     11     -14.0750      2.00000
     12      -6.9383      2.00000
     13      -6.3844      2.00000
     14      -5.9613      2.00000
     15      -5.6372      2.00000
     16      -5.4427      2.00000
     17      -5.2113      2.00000
     18      -5.0317      2.00000
     19      -4.7952      2.00000
     20      -4.6458      2.00000
     21      -4.5264      2.00000
     22      -4.2289      2.00000
     23      -4.0885      2.00000
     24      -3.9354      2.00000
     25      -3.7553      2.00000
     26      -3.6211      2.00000
     27      -3.4217      2.00000
     28      -3.2845      2.00000
     29      -3.2422      2.00000
     30      -3.2252      2.00000
     31      -3.1505      2.00000
     32      -2.9498      2.00000
     33      -2.8616      2.00000
     34      -2.8083      2.00000
     35      -2.8023      2.00000
     36      -2.6215      2.00000
     37      -2.4812      2.00000
     38      -2.2895      2.00000
     39      -2.2265      2.00000
     40      -2.0973      2.00000
     41      -2.0117      2.00000
     42      -1.9832      2.00000
     43      -1.5593      2.00000
     44      -1.3712      2.00000
     45      -1.3645      2.00000
     46      -1.2580      2.00000
     47      -1.1777      2.00000
     48      -1.0400      2.00000
     49      -0.6130      2.00000
     50      -0.2500      2.00000
     51      -0.0958      2.00000
     52      -0.0542      2.00000
     53       0.2410      2.00000
     54       0.3581      2.00000
     55       0.3609      2.00000
     56       0.8164      2.00000
     57       1.0938      1.70736
     58       1.3879      0.00000
     59       1.8795      0.00000
     60       2.2873      0.00000
     61       3.1948      0.00000
     62       3.3311      0.00000
     63       3.5797      0.00000
     64       4.6003      0.00000
     65       4.8437      0.00000
     66       5.1828      0.00000
     67       6.2374      0.00000
     68       6.6801      0.00000

 k-point    21 :       0.3077    0.3077    0.0000
  band No.  band energies     occupation 
      1     -18.7403      2.00000
      2     -18.5228      2.00000
      3     -18.0625      2.00000
      4     -17.5941      2.00000
      5     -17.1265      2.00000
      6     -16.6609      2.00000
      7     -16.1994      2.00000
      8     -15.7415      2.00000
      9     -15.2762      2.00000
     10     -14.7868      2.00000
     11     -14.0639      2.00000
     12      -6.6876      2.00000
     13      -6.2167      2.00000
     14      -5.9707      2.00000
     15      -5.7124      2.00000
     16      -5.5200      2.00000
     17      -5.2558      2.00000
     18      -5.0570      2.00000
     19      -4.8228      2.00000
     20      -4.7048      2.00000
     21      -4.5425      2.00000
     22      -4.3129      2.00000
     23      -4.0916      2.00000
     24      -3.9381      2.00000
     25      -3.8492      2.00000
     26      -3.6221      2.00000
     27      -3.4278      2.00000
     28      -3.3876      2.00000
     29      -3.3555      2.00000
     30      -3.1591      2.00000
     31      -2.9601      2.00000
     32      -2.9464      2.00000
     33      -2.9109      2.00000
     34      -2.6916      2.00000
     35      -2.4868      2.00000
     36      -2.3628      2.00000
     37      -2.2848      2.00000
     38      -2.1861      2.00000
     39      -2.0112      2.00000
     40      -1.7624      2.00000
     41      -1.7511      2.00000
     42      -1.6667      2.00000
     43      -1.5686      2.00000
     44      -1.4518      2.00000
     45      -1.3877      2.00000
     46      -1.3153      2.00000
     47      -1.1401      2.00000
     48      -1.0802      2.00000
     49      -0.7907      2.00000
     50      -0.7103      2.00000
     51      -0.6988      2.00000
     52      -0.4045      2.00000
     53      -0.1304      2.00000
     54       0.0399      2.00000
     55       0.2740      2.00000
     56       0.5245      2.00000
     57       1.1003      1.61413
     58       1.4757      0.00000
     59       1.6408      0.00000
     60       1.9227      0.00000
     61       2.9680      0.00000
     62       3.1319      0.00000
     63       3.3106      0.00000
     64       4.6333      0.00000
     65       4.7838      0.00000
     66       5.0456      0.00000
     67       6.0764      0.00000
     68       6.3866      0.00000


--------------------------------------------------------------------------------------------------------


 soft charge-density along one line, spin component           1
         0         1         2         3         4         5         6         7         8         9
 total charge-density along one line
 
 pseudopotential strength for first ion, spin component:           1
 13.107  -0.415  -0.000  -0.001   0.000   0.000  -0.000  -0.000
 -0.415   0.097   0.000   0.000  -0.000  -0.000   0.000   0.000
 -0.000   0.000  -9.554  -0.000   0.000   0.056   0.000  -0.000
 -0.001   0.000  -0.000  -9.558   0.000   0.000   0.057  -0.000
  0.000  -0.000   0.000   0.000  -9.554  -0.000  -0.000   0.056
  0.000  -0.000   0.056   0.000  -0.000   0.201  -0.000   0.000
 -0.000   0.000   0.000   0.057  -0.000  -0.000   0.200   0.000
 -0.000   0.000  -0.000  -0.000   0.056   0.000   0.000   0.201
 total augmentation occupancy for first ion, spin component:           1
  2.000   0.000   0.000   0.000   0.000   0.000   0.000   0.000
  0.000   0.000   0.000   0.000   0.000   0.000   0.000   0.000
  0.000   0.000   1.333  -0.000   0.000   0.000   0.000   0.000
  0.000   0.000  -0.000   1.333   0.000   0.000   0.000   0.000
  0.000   0.000   0.000   0.000   1.333   0.000   0.000   0.000
  0.000   0.000   0.000   0.000   0.000   0.000   0.000   0.000
  0.000   0.000   0.000   0.000   0.000   0.000   0.000   0.000
  0.000   0.000   0.000   0.000   0.000   0.000   0.000   0.000


------------------------ aborting loop because EDIFF is reached ----------------------------------------


    CHARGE:  cpu time    0.3884: real time    0.3893
    FORLOC:  cpu time    0.0161: real time    0.0161
    FORNL :  cpu time    2.4479: real time    2.4529
    STRESS:  cpu time    3.7829: real time    3.7912
    FORCOR:  cpu time    0.0741: real time    0.0742
    FORHAR:  cpu time    0.0347: real time    0.0348
    OFIELD:  cpu time    0.0005: real time    0.0005

  FORCE on cell =-STRESS in cart. coord.  units (eV):
  Direction    XX          YY          ZZ          XY          YZ          ZX
  --------------------------------------------------------------------------------------
  Alpha Z    30.41231    30.41231    30.41231
  Ewald  191295.00248191295.00280************    -0.00013     0.00006    -0.00011
  Hartree192613.59802192613.59797************     0.00000     0.00000     0.00002
  E(xc)    -448.65877  -448.65877  -449.00005    -0.00000     0.00000     0.00000
  Local  ************************384544.00166    -0.00023    -0.00003     0.00003
  n-local   -59.11199   -70.59304   -61.94645     2.64319    -2.29374     6.54937
  augment    67.47424    67.47399    67.20610     0.00020    -0.00000     0.00000
  Kinetic  1659.04713  1634.62911  1645.83681    -2.57666     1.10159     0.47751
  Fock        0.00000     0.00000     0.00000     0.00000     0.00000     0.00000
  -------------------------------------------------------------------------------------
  Total      -2.57529    -2.57528    -2.57360     0.00000     0.00000     0.00000
  in kB      -7.40801    -7.40801    -7.40317     0.00000     0.00000     0.00000
  external pressure =       -7.41 kB  Pullay stress =        0.00 kB


 VOLUME and BASIS-vectors are now :
 -----------------------------------------------------------------------------
  energy-cutoff  :      520.00
  volume of cell :      556.97
      direct lattice vectors                 reciprocal lattice vectors
     2.592423668 -1.496736268  0.000000000     0.385739419  0.000000000 -0.000000000
     0.000000000  2.993472536  0.000000000     0.192869710  0.334060189 -0.000000000
     0.000000000  0.000000000 71.771635044     0.000000000  0.000000000  0.013933081

  length of vectors
     2.993472888  2.993472536 71.771635044     0.385739419  0.385739465  0.013933081


 FORCES acting on ions
    electron-ion (+dipol)            ewald-force                    non-local-force                 convergence-correction
 -----------------------------------------------------------------------------------------------
   0.107E-02 -.185E-02 0.238E+04   0.462E-04 -.644E-04 -.238E+04   0.488E-16 0.000E+00 0.335E+00   -.422E-07 0.738E-07 0.137E+01
   0.111E-06 -.221E-07 0.119E+04   -.617E-05 0.834E-05 -.119E+04   -.826E-17 -.173E-17 -.190E+01   -.339E-09 0.310E-09 0.145E+01
   0.106E-02 -.184E-02 0.582E+03   0.600E-04 -.106E-03 -.581E+03   -.829E-17 0.173E-17 -.194E+01   0.794E-10 -.195E-09 0.149E+01
   0.880E-07 -.390E-07 -.629E+03   -.612E-05 0.827E-05 0.629E+03   -.981E-17 0.173E-17 -.194E+01   0.775E-10 -.749E-10 0.148E+01
   0.106E-02 -.184E-02 -.123E+04   0.602E-04 -.107E-03 0.123E+04   -.978E-17 -.347E-17 -.191E+01   -.319E-08 0.520E-08 0.138E+01
   0.119E-06 -.719E-07 -.245E+04   -.672E-05 0.906E-05 0.245E+04   -.878E-17 -.867E-18 -.203E+01   0.932E-09 -.285E-09 0.137E+01
   0.106E-02 -.184E-02 -.305E+04   0.617E-04 -.111E-03 0.306E+04   -.195E-16 0.347E-17 -.316E+01   0.229E-06 -.388E-06 0.113E+01
   -.106E-02 0.184E-02 0.179E+04   -.576E-04 0.970E-04 -.179E+04   -.622E-17 0.000E+00 -.177E+01   0.119E-07 -.208E-07 0.141E+01
   -.106E-02 0.184E-02 -.234E+02   -.579E-04 0.980E-04 0.239E+02   -.111E-16 0.173E-17 -.192E+01   -.342E-08 0.541E-08 0.144E+01
   -.106E-02 0.184E-02 -.184E+04   -.582E-04 0.985E-04 0.184E+04   -.100E-16 0.000E+00 -.192E+01   -.190E-08 0.358E-08 0.145E+01
   -.108E-02 0.186E-02 -.365E+04   -.428E-04 0.632E-04 0.366E+04   -.769E-16 0.278E-16 -.157E+02   -.994E-06 0.172E-05 -.124E+00
   -.224E-05 0.121E-05 0.694E+03   0.743E-05 -.101E-04 -.693E+03   -.101E-17 0.139E-16 -.145E+01   0.224E-09 -.448E-09 0.464E+00
   -.174E-05 0.880E-06 0.915E+02   0.613E-05 -.829E-05 -.906E+02   -.148E-16 0.278E-16 -.138E+01   -.609E-10 0.132E-09 0.482E+00
   -.174E-05 0.877E-06 -.514E+03   0.618E-05 -.836E-05 0.515E+03   0.129E-16 0.000E+00 -.138E+01   -.523E-10 0.678E-10 0.473E+00
   -.487E-05 0.253E-05 -.113E+04   0.201E-04 -.272E-04 0.113E+04   -.200E-17 0.000E+00 -.288E+01   -.735E-08 0.807E-08 0.160E+00
   0.486E-04 -.863E-04 0.293E+03   -.514E-04 0.913E-04 -.292E+03   -.443E-17 0.000E+00 -.138E+01   0.110E-09 -.986E-10 0.483E+00
   0.487E-04 -.864E-04 -.312E+03   -.515E-04 0.915E-04 0.313E+03   -.961E-18 -.139E-16 -.138E+01   -.977E-11 0.658E-10 0.474E+00
   0.495E-04 -.882E-04 -.919E+03   -.531E-04 0.948E-04 0.920E+03   0.128E-16 -.139E-16 -.157E+01   0.467E-09 -.194E-08 0.427E+00
   -.505E-04 0.854E-04 0.495E+03   0.492E-04 -.829E-04 -.494E+03   -.443E-17 0.000E+00 -.138E+01   0.275E-09 -.517E-09 0.477E+00
   -.505E-04 0.854E-04 -.110E+03   0.493E-04 -.831E-04 0.111E+03   -.960E-18 -.278E-16 -.138E+01   -.318E-09 0.561E-09 0.480E+00
   -.507E-04 0.858E-04 -.716E+03   0.496E-04 -.835E-04 0.717E+03   -.973E-18 0.000E+00 -.140E+01   -.514E-11 -.461E-10 0.470E+00
   0.229E-06 0.527E-07 0.123E+04   -.189E-05 0.228E-05 -.123E+04   0.545E-16 0.000E+00 -.147E+01   -.174E-09 0.274E-10 -.449E+00
   0.722E-07 0.565E-07 0.130E+04   0.551E-07 -.693E-07 -.130E+04   -.691E-17 0.000E+00 0.347E-01   0.622E-10 -.353E-11 0.223E+00
   0.675E-05 -.340E-05 0.134E+04   -.220E-04 0.286E-04 -.134E+04   -.118E-16 0.555E-16 0.669E+01   0.886E-10 -.545E-09 0.613E+00
   0.149E-04 -.258E-04 0.128E+04   -.428E-05 0.743E-05 -.128E+04   0.107E-19 0.000E+00 0.153E-01   0.542E-09 -.111E-08 0.832E-02
   0.157E-04 -.270E-04 0.135E+04   -.479E-05 0.817E-05 -.135E+04   0.241E-16 -.139E-16 -.276E+00   0.105E-09 -.143E-09 0.507E+00
   -.147E-04 0.256E-04 0.126E+04   0.416E-05 -.727E-05 -.126E+04   -.349E-17 0.139E-16 -.237E-01   0.414E-11 0.234E-09 -.204E+00
   -.153E-04 0.266E-04 0.132E+04   0.409E-05 -.708E-05 -.132E+04   -.334E-17 -.694E-17 0.192E+00   -.355E-09 0.576E-09 0.405E+00
 -----------------------------------------------------------------------------------------------
   -.193E-04 0.159E-04 0.249E+02   -.550E-13 -.714E-15 0.909E-12   -.707E-16 0.651E-16 -.443E+02   -.809E-06 0.140E-05 0.194E+02
 
 
 POSITION                                       TOTAL-FORCE (eV/Angst)
 -----------------------------------------------------------------------------------
      0.86414      1.49674     31.01096         0.000000      0.000000      0.014332
      0.00000      0.00000     35.98574        -0.000000      0.000000     -0.003603
      0.86414      1.49674     38.45104         0.000000     -0.000000     -0.014906
      0.00000      0.00000     43.38010        -0.000000      0.000000     -0.017347
      0.86414      1.49674     45.84282         0.000000     -0.000000     -0.006990
      0.00000      0.00000     50.76192        -0.000000      0.000000     -0.010027
      0.86414      1.49674     53.20082         0.000000     -0.000000     -0.003917
      1.72828     -0.00000     33.51979        -0.000000      0.000000      0.008952
      1.72828     -0.00000     40.91543        -0.000000     -0.000000     -0.006033
      1.72828     -0.00000     48.30340        -0.000000      0.000000     -0.003287
      1.72828     -0.00000     55.52503         0.000000     -0.000000      0.009489
      0.00000      0.00000     32.36775        -0.000000      0.000000     -0.000097
      0.00000      0.00000     39.75964         0.000000      0.000000      0.009054
      0.00000      0.00000     47.14994        -0.000000      0.000000     -0.005024
      0.00000      0.00000     54.58448        -0.000000      0.000000     -0.053399
      1.72828     -0.00000     37.29489         0.000000      0.000000      0.010733
      1.72828     -0.00000     44.68793        -0.000000      0.000000      0.000484
      1.72828     -0.00000     52.07521         0.000000      0.000000      0.005632
      0.86414      1.49674     34.83023         0.000000      0.000000      0.004773
      0.86414      1.49674     42.22417         0.000000      0.000000      0.007036
      0.86414      1.49674     49.61075        -0.000000      0.000000      0.001815
      0.00000      0.00000     16.31075         0.000000      0.000000      0.019238
      0.00000      0.00000     23.01288         0.000000      0.000000      0.011125
      0.00000      0.00000     29.63304        -0.000000      0.000000     -0.003750
      1.72828     -0.00000     20.78422         0.000000      0.000000      0.012158
      1.72828     -0.00000     27.49802         0.000000      0.000000      0.014003
      0.86414      1.49674     18.56532        -0.000000      0.000000     -0.001036
      0.86414      1.49674     25.25417        -0.000000      0.000000      0.000593
 -----------------------------------------------------------------------------------
    total drift:                               -0.000020      0.000017     -0.008912


--------------------------------------------------------------------------------------------------------



  FREE ENERGIE OF THE ION-ELECTRON SYSTEM (eV)
  ---------------------------------------------------
  free  energy   TOTEN  =      -149.74174117 eV

  energy  without entropy=     -149.72005793  energy(sigma->0) =     -149.73089955
 


--------------------------------------------------------------------------------------------------------


    POTLOK:  cpu time    0.2002: real time    0.2006


--------------------------------------------------------------------------------------------------------


 stress matrix after NEB project (eV)
     -2.57529      0.00000      0.00000
      0.00000     -2.57528      0.00000
      0.00000      0.00000     -2.57360
  FORCES: max atom, RMS     0.053399    0.013573
  FORCE total and by dimension    0.071822    0.053399
  Stress total and by dimension    4.459551    2.575285
     LOOP+:  cpu time   85.7646: real time   86.1826
    4ORBIT:  cpu time    0.0000: real time    0.0000

 total amount of memory used by VASP MPI-rank0   107118. kBytes
=======================================================================

   base      :      30000. kBytes
   nonl-proj :      17024. kBytes
   fftplans  :      24969. kBytes
   grid      :      13079. kBytes
   one-center:         21. kBytes
   wavefun   :      22025. kBytes
 
  
  
 General timing and accounting informations for this job:
 ========================================================
  
                  Total CPU time used (sec):      101.276
                            User time (sec):       97.989
                          System time (sec):        3.286
                         Elapsed time (sec):      101.783
  
                   Maximum memory used (kb):      165164.
                   Average memory used (kb):           0.
  
                          Minor page faults:       128881
                          Major page faults:            0
                 Voluntary context switches:          165
