       N       E                     dE             d eps       ncg     rms          rms(c)
DAV:   1     0.521221874306E+03    0.52122E+03   -0.45277E+04  2788   0.135E+03
DAV:   2    -0.100229910083E+03   -0.62145E+03   -0.58876E+03  3600   0.256E+02
DAV:   3    -0.160503615818E+03   -0.60274E+02   -0.59983E+02  3208   0.865E+01
DAV:   4    -0.161299109006E+03   -0.79549E+00   -0.79430E+00  3224   0.108E+01
DAV:   5    -0.161311893513E+03   -0.12785E-01   -0.12778E-01  3344   0.133E+00    0.231E+01
DAV:   6    -0.145259953245E+03    0.16052E+02   -0.93975E+01  3140   0.302E+01    0.786E+00
DAV:   7    -0.145123350312E+03    0.13660E+00   -0.19823E+00  3094   0.529E+00    0.478E+00
DAV:   8    -0.145023248642E+03    0.10010E+00   -0.68518E-01  3156   0.408E+00    0.894E-01
DAV:   9    -0.144995220234E+03    0.28028E-01   -0.19257E-01  3100   0.131E+00    0.546E-01
DAV:  10    -0.144993187137E+03    0.20331E-02   -0.37772E-02  3126   0.761E-01    0.275E-01
DAV:  11    -0.144994442265E+03   -0.12551E-02   -0.49411E-03  3144   0.283E-01    0.173E-01
DAV:  12    -0.144994586978E+03   -0.14471E-03   -0.11264E-03  3496   0.205E-01    0.855E-02
DAV:  13    -0.144994512586E+03    0.74393E-04   -0.14027E-03  3148   0.158E-01    0.278E-02
DAV:  14    -0.144994510464E+03    0.21218E-05   -0.10043E-04  3080   0.422E-02    0.258E-02
DAV:  15    -0.144994507708E+03    0.27555E-05   -0.10841E-05  1766   0.129E-02
   1 F= -.14499451E+03 E0= -.14499209E+03  d E =-.144995E+03
       N       E                     dE             d eps       ncg     rms          rms(c)
DAV:   1    -0.144995577173E+03   -0.10667E-02   -0.31105E-02  2836   0.758E-01    0.441E-02
DAV:   2    -0.144995586918E+03   -0.97445E-05   -0.12006E-03  3220   0.172E-01    0.228E-02
DAV:   3    -0.144995572777E+03    0.14141E-04   -0.17381E-04  3158   0.623E-02    0.196E-02
DAV:   4    -0.144995557720E+03    0.15057E-04   -0.18615E-05  1996   0.236E-02    0.122E-02
DAV:   5    -0.144995531463E+03    0.26257E-04   -0.45707E-05  3020   0.584E-02    0.885E-03
DAV:   6    -0.144995523650E+03    0.78128E-05   -0.24948E-05  2312   0.472E-02
   2 F= -.14499552E+03 E0= -.14499300E+03  d E =-.101594E-02
       N       E                     dE             d eps       ncg     rms          rms(c)
DAV:   1    -0.144995848891E+03   -0.31743E-03   -0.27636E-02  2824   0.725E-01    0.326E-02
DAV:   2    -0.144995890467E+03   -0.41576E-04   -0.12331E-03  3212   0.161E-01    0.281E-02
DAV:   3    -0.144995868757E+03    0.21710E-04   -0.93848E-05  3152   0.473E-02    0.225E-02
DAV:   4    -0.144995844489E+03    0.24268E-04   -0.27698E-05  2532   0.304E-02    0.116E-02
DAV:   5    -0.144995813792E+03    0.30697E-04   -0.46967E-05  3012   0.649E-02    0.102E-02
DAV:   6    -0.144995803051E+03    0.10741E-04   -0.27141E-05  2456   0.508E-02    0.950E-03
DAV:   7    -0.144995796280E+03    0.67716E-05   -0.37839E-05  2662   0.610E-02
   3 F= -.14499580E+03 E0= -.14499320E+03  d E =-.128857E-02
       N       E                     dE             d eps       ncg     rms          rms(c)
DAV:   1    -0.144996319933E+03   -0.51688E-03   -0.16864E-01  2820   0.175E+00    0.535E-02
DAV:   2    -0.144996689063E+03   -0.36913E-03   -0.40607E-03  3046   0.242E-01    0.348E-02
DAV:   3    -0.144996665045E+03    0.24018E-04   -0.37681E-05  3006   0.370E-02    0.228E-02
DAV:   4    -0.144996652410E+03    0.12636E-04   -0.59602E-05  2944   0.470E-02    0.725E-03
DAV:   5    -0.144996655555E+03   -0.31452E-05   -0.24859E-05  2270   0.215E-02    0.539E-03
DAV:   6    -0.144996657288E+03   -0.17328E-05   -0.41786E-06  1566   0.939E-03
   4 F= -.14499666E+03 E0= -.14499402E+03  d E =-.861008E-03
       N       E                     dE             d eps       ncg     rms          rms(c)
DAV:   1    -0.144994974556E+03    0.16810E-02   -0.14493E+00  2824   0.512E+00    0.155E-01
DAV:   2    -0.144998001898E+03   -0.30273E-02   -0.34088E-02  3080   0.698E-01    0.949E-02
DAV:   3    -0.144997775009E+03    0.22689E-03   -0.31573E-04  3240   0.118E-01    0.636E-02
DAV:   4    -0.144997572810E+03    0.20220E-03   -0.44909E-04  3410   0.173E-01    0.197E-02
DAV:   5    -0.144997569401E+03    0.34093E-05   -0.33607E-04  3114   0.895E-02    0.185E-02
DAV:   6    -0.144997551609E+03    0.17792E-04   -0.42785E-05  2840   0.347E-02    0.100E-02
DAV:   7    -0.144997519406E+03    0.32203E-04   -0.12665E-05  1994   0.579E-02    0.593E-03
DAV:   8    -0.144997502965E+03    0.16441E-04   -0.17940E-05  2206   0.448E-02    0.581E-03
DAV:   9    -0.144997472546E+03    0.30418E-04   -0.21609E-05  2304   0.106E-01    0.541E-03
DAV:  10    -0.144997454626E+03    0.17921E-04   -0.57919E-05  3178   0.107E-01    0.547E-03
DAV:  11    -0.144997447440E+03    0.71853E-05   -0.48861E-05  2920   0.919E-02
   5 F= -.14499745E+03 E0= -.14499475E+03  d E =-.165116E-02
       N       E                     dE             d eps       ncg     rms          rms(c)
DAV:   1    -0.144997417447E+03    0.37178E-04   -0.59221E-02  2796   0.104E+00    0.286E-02
DAV:   2    -0.144997557271E+03   -0.13982E-03   -0.15773E-03  3058   0.151E-01    0.286E-02
DAV:   3    -0.144997543087E+03    0.14184E-04   -0.17211E-05  2168   0.282E-02    0.206E-02
DAV:   4    -0.144997529453E+03    0.13634E-04   -0.44895E-05  2700   0.479E-02    0.681E-03
DAV:   5    -0.144997531018E+03   -0.15652E-05   -0.26208E-05  2282   0.219E-02    0.553E-03
DAV:   6    -0.144997530492E+03    0.52609E-06   -0.65027E-06  1630   0.119E-02
   6 F= -.14499753E+03 E0= -.14499483E+03  d E =-.173421E-02
       N       E                     dE             d eps       ncg     rms          rms(c)
DAV:   1    -0.144997878869E+03   -0.34785E-03   -0.14144E-01  2796   0.160E+00    0.506E-02
DAV:   2    -0.144998189620E+03   -0.31075E-03   -0.34798E-03  3056   0.231E-01    0.295E-02
DAV:   3    -0.144998174660E+03    0.14960E-04   -0.53277E-05  3094   0.337E-02    0.220E-02
DAV:   4    -0.144998163489E+03    0.11172E-04   -0.47456E-05  2798   0.307E-02    0.897E-03
DAV:   5    -0.144998161403E+03    0.20852E-05   -0.96861E-06  1792   0.207E-02    0.771E-03
DAV:   6    -0.144998160498E+03    0.90494E-06   -0.78473E-06  1810   0.211E-02
   7 F= -.14499816E+03 E0= -.14499545E+03  d E =-.630006E-03
       N       E                     dE             d eps       ncg     rms          rms(c)
DAV:   1    -0.144996584990E+03    0.15764E-02   -0.12348E+00  2788   0.473E+00    0.149E-01
DAV:   2    -0.144999256421E+03   -0.26714E-02   -0.29698E-02  3046   0.677E-01    0.843E-02
DAV:   3    -0.144999128845E+03    0.12758E-03   -0.41623E-04  3204   0.951E-02    0.621E-02
DAV:   4    -0.144999039084E+03    0.89761E-04   -0.38961E-04  3154   0.888E-02    0.251E-02
DAV:   5    -0.144999021824E+03    0.17260E-04   -0.81290E-05  3084   0.530E-02    0.216E-02
DAV:   6    -0.144999012378E+03    0.94458E-05   -0.65239E-05  2992   0.513E-02
   8 F= -.14499901E+03 E0= -.14499629E+03  d E =-.148189E-02
       N       E                     dE             d eps       ncg     rms          rms(c)
DAV:   1    -0.144999178054E+03   -0.15623E-03   -0.43098E-01  2836   0.279E+00    0.805E-02
DAV:   2    -0.144999992612E+03   -0.81456E-03   -0.88738E-03  3036   0.369E-01    0.455E-02
DAV:   3    -0.144999931201E+03    0.61411E-04   -0.74258E-05  3176   0.521E-02    0.304E-02
DAV:   4    -0.144999876884E+03    0.54317E-04   -0.17276E-04  3240   0.878E-02    0.975E-03
DAV:   5    -0.144999875596E+03    0.12881E-05   -0.91629E-05  2984   0.415E-02    0.116E-02
DAV:   6    -0.144999873206E+03    0.23897E-05   -0.66161E-06  1626   0.117E-02
   9 F= -.14499987E+03 E0= -.14499715E+03  d E =-.860828E-03
       N       E                     dE             d eps       ncg     rms          rms(c)
DAV:   1    -0.144995883657E+03    0.39919E-02   -0.29055E+00  2828   0.724E+00    0.203E-01
DAV:   2    -0.145001303924E+03   -0.54203E-02   -0.59551E-02  3036   0.953E-01    0.119E-01
DAV:   3    -0.145000876177E+03    0.42775E-03   -0.51056E-04  3222   0.133E-01    0.812E-02
DAV:   4    -0.145000480684E+03    0.39549E-03   -0.11315E-03  3296   0.226E-01    0.258E-02
DAV:   5    -0.145000454603E+03    0.26081E-04   -0.65464E-04  3094   0.111E-01    0.296E-02
DAV:   6    -0.145000442464E+03    0.12140E-04   -0.44502E-05  2744   0.274E-02    0.264E-02
DAV:   7    -0.145000408838E+03    0.33625E-04   -0.22991E-05  2132   0.208E-02    0.196E-02
DAV:   8    -0.145000265222E+03    0.14362E-03   -0.24198E-04  3240   0.115E-01    0.361E-02
DAV:   9    -0.145000184372E+03    0.80849E-04   -0.17565E-04  3632   0.116E-01    0.325E-02
DAV:  10    -0.145000182290E+03    0.20828E-05   -0.57213E-04  3236   0.129E-01    0.482E-02
DAV:  11    -0.145000074641E+03    0.10765E-03   -0.13985E-04  3434   0.116E-01    0.321E-02
DAV:  12    -0.144999999606E+03    0.75034E-04   -0.15916E-04  4088   0.191E-01    0.407E-02
DAV:  13    -0.144999923760E+03    0.75846E-04   -0.19790E-04  3720   0.205E-01    0.234E-02
DAV:  14    -0.144999921458E+03    0.23022E-05   -0.20382E-04  3064   0.603E-02    0.132E-02
DAV:  15    -0.144999919506E+03    0.19521E-05   -0.18261E-05  2140   0.190E-02
  10 F= -.14499992E+03 E0= -.14499721E+03  d E =-.907127E-03
       N       E                     dE             d eps       ncg     rms          rms(c)
DAV:   1    -0.144999502052E+03    0.41941E-03   -0.48104E-01  2892   0.289E+00    0.821E-02
DAV:   2    -0.145000383059E+03   -0.88101E-03   -0.97506E-03  3020   0.376E-01    0.492E-02
DAV:   3    -0.145000310901E+03    0.72158E-04   -0.84498E-05  3166   0.534E-02    0.333E-02
DAV:   4    -0.145000246564E+03    0.64337E-04   -0.19494E-04  3206   0.925E-02    0.897E-03
DAV:   5    -0.145000247353E+03   -0.78872E-06   -0.10856E-04  3014   0.417E-02    0.119E-02
DAV:   6    -0.145000246218E+03    0.11354E-05   -0.34159E-06  1636   0.736E-03
  11 F= -.14500025E+03 E0= -.14499754E+03  d E =-.123384E-02
       N       E                     dE             d eps       ncg     rms          rms(c)
DAV:   1    -0.145000485405E+03   -0.23805E-03   -0.74284E-02  2838   0.114E+00    0.308E-02
DAV:   2    -0.145000619409E+03   -0.13400E-03   -0.15352E-03  3086   0.152E-01    0.201E-02
DAV:   3    -0.145000607717E+03    0.11692E-04   -0.21055E-05  2242   0.227E-02    0.140E-02
DAV:   4    -0.145000592464E+03    0.15253E-04   -0.26254E-05  2592   0.303E-02    0.615E-03
DAV:   5    -0.145000588269E+03    0.41954E-05   -0.82077E-06  1710   0.200E-02    0.667E-03
DAV:   6    -0.145000580128E+03    0.81414E-05   -0.89251E-06  1854   0.329E-02
  12 F= -.14500058E+03 E0= -.14499787E+03  d E =-.333910E-03
       N       E                     dE             d eps       ncg     rms          rms(c)
DAV:   1    -0.145000099167E+03    0.48910E-03   -0.66769E-01  2820   0.343E+00    0.999E-02
DAV:   2    -0.145001392042E+03   -0.12929E-02   -0.14186E-02  3058   0.460E-01    0.587E-02
DAV:   3    -0.145001309644E+03    0.82398E-04   -0.17421E-04  3228   0.692E-02    0.408E-02
DAV:   4    -0.145001246842E+03    0.62802E-04   -0.28857E-04  3198   0.965E-02    0.184E-02
DAV:   5    -0.145001239640E+03    0.72024E-05   -0.10884E-04  3080   0.510E-02    0.209E-02
DAV:   6    -0.145001236649E+03    0.29906E-05   -0.18829E-05  2008   0.184E-02
  13 F= -.14500124E+03 E0= -.14499853E+03  d E =-.990432E-03
       N       E                     dE             d eps       ncg     rms          rms(c)
DAV:   1    -0.144996170342E+03    0.50693E-02   -0.26686E+00  2804   0.688E+00    0.206E-01
DAV:   2    -0.145001296951E+03   -0.51266E-02   -0.56991E-02  3040   0.932E-01    0.116E-01
DAV:   3    -0.145000978570E+03    0.31838E-03   -0.83498E-04  3238   0.150E-01    0.817E-02
DAV:   4    -0.145000745694E+03    0.23288E-03   -0.89351E-04  3222   0.176E-01    0.361E-02
DAV:   5    -0.145000694621E+03    0.51073E-04   -0.40911E-04  3344   0.118E-01    0.394E-02
DAV:   6    -0.145000668671E+03    0.25950E-04   -0.15733E-04  2964   0.617E-02    0.255E-02
DAV:   7    -0.145000628917E+03    0.39754E-04   -0.63028E-05  2974   0.528E-02    0.114E-02
DAV:   8    -0.145000584027E+03    0.44890E-04   -0.19205E-05  2080   0.727E-02    0.106E-02
DAV:   9    -0.145000518197E+03    0.65830E-04   -0.59648E-05  3256   0.120E-01    0.126E-02
DAV:  10    -0.145000425288E+03    0.92909E-04   -0.89670E-05  3622   0.190E-01    0.134E-02
DAV:  11    -0.145000350326E+03    0.74962E-04   -0.18243E-04  3374   0.216E-01    0.200E-02
DAV:  12    -0.145000341502E+03    0.88242E-05   -0.16813E-04  3068   0.119E-01    0.192E-02
DAV:  13    -0.145000349650E+03   -0.81477E-05   -0.16219E-04  2756   0.441E-02    0.783E-03
DAV:  14    -0.145000347857E+03    0.17929E-05   -0.13343E-05  1764   0.191E-02
  14 F= -.14500035E+03 E0= -.14499767E+03  d E =-.101639E-03
       N       E                     dE             d eps       ncg     rms          rms(c)
DAV:   1    -0.144998946659E+03    0.14030E-02   -0.13595E+00  2808   0.496E+00    0.139E-01
DAV:   2    -0.145001519677E+03   -0.25730E-02   -0.28198E-02  3042   0.661E-01    0.817E-02
DAV:   3    -0.145001365860E+03    0.15382E-03   -0.33508E-04  3250   0.949E-02    0.579E-02
DAV:   4    -0.145001257550E+03    0.10831E-03   -0.51929E-04  3200   0.133E-01    0.236E-02
DAV:   5    -0.145001251570E+03    0.59799E-05   -0.23234E-04  3158   0.730E-02    0.275E-02
DAV:   6    -0.145001246948E+03    0.46219E-05   -0.35930E-05  2352   0.256E-02
  15 F= -.14500125E+03 E0= -.14499854E+03  d E =-.100073E-02
       N       E                     dE             d eps       ncg     rms          rms(c)
DAV:   1    -0.145001664922E+03   -0.41335E-03   -0.12487E-01  2782   0.152E+00    0.394E-02
DAV:   2    -0.145001894860E+03   -0.22994E-03   -0.26526E-03  3066   0.208E-01    0.266E-02
DAV:   3    -0.145001873972E+03    0.20889E-04   -0.46898E-05  3024   0.395E-02    0.192E-02
DAV:   4    -0.145001852292E+03    0.21679E-04   -0.17238E-05  2020   0.386E-02    0.104E-02
DAV:   5    -0.145001833553E+03    0.18739E-04   -0.29847E-05  2458   0.550E-02    0.618E-03
DAV:   6    -0.145001833007E+03    0.54569E-06   -0.33090E-05  2500   0.260E-02
  16 F= -.14500183E+03 E0= -.14499914E+03  d E =-.586059E-03
       N       E                     dE             d eps       ncg     rms          rms(c)
DAV:   1    -0.145000924063E+03    0.90949E-03   -0.11235E+00  2772   0.457E+00    0.137E-01
DAV:   2    -0.145003124709E+03   -0.22006E-02   -0.24951E-02  3074   0.638E-01    0.743E-02
DAV:   3    -0.145003001400E+03    0.12331E-03   -0.51759E-04  3250   0.105E-01    0.562E-02
DAV:   4    -0.145002902329E+03    0.99072E-04   -0.21192E-04  3118   0.816E-02    0.282E-02
DAV:   5    -0.145002834132E+03    0.68197E-04   -0.17817E-04  3186   0.104E-01    0.222E-02
DAV:   6    -0.145002830119E+03    0.40131E-05   -0.13618E-04  3052   0.541E-02    0.214E-02
DAV:   7    -0.145002821314E+03    0.88042E-05   -0.34606E-05  2480   0.281E-02
  17 F= -.14500282E+03 E0= -.14500014E+03  d E =-.157437E-02
       N       E                     dE             d eps       ncg     rms          rms(c)
DAV:   1    -0.145002476620E+03    0.35350E-03   -0.20710E-01  2780   0.196E+00    0.616E-02
DAV:   2    -0.145002895675E+03   -0.41906E-03   -0.48155E-03  3086   0.280E-01    0.327E-02
DAV:   3    -0.145002866894E+03    0.28781E-04   -0.94238E-05  3126   0.458E-02    0.249E-02
DAV:   4    -0.145002839100E+03    0.27794E-04   -0.55313E-05  3032   0.414E-02    0.114E-02
DAV:   5    -0.145002822030E+03    0.17070E-04   -0.39789E-05  2818   0.489E-02    0.127E-02
DAV:   6    -0.145002819855E+03    0.21750E-05   -0.31317E-05  2424   0.265E-02
  18 F= -.14500282E+03 E0= -.14500015E+03  d E =-.157291E-02
       N       E                     dE             d eps       ncg     rms          rms(c)
DAV:   1    -0.145003077803E+03   -0.25577E-03   -0.29982E-01  2812   0.236E+00    0.721E-02
DAV:   2    -0.145003712335E+03   -0.63453E-03   -0.67971E-03  3004   0.323E-01    0.375E-02
DAV:   3    -0.145003682342E+03    0.29993E-04   -0.73536E-05  3194   0.393E-02    0.256E-02
DAV:   4    -0.145003664588E+03    0.17754E-04   -0.74893E-05  3118   0.477E-02    0.964E-03
DAV:   5    -0.145003664524E+03    0.63084E-07   -0.39400E-05  2518   0.250E-02    0.901E-03
DAV:   6    -0.145003663756E+03    0.76892E-06   -0.37781E-06  1488   0.834E-03
  19 F= -.14500366E+03 E0= -.14500101E+03  d E =-.843901E-03
       N       E                     dE             d eps       ncg     rms          rms(c)
DAV:   1    -0.145000106123E+03    0.35584E-02   -0.26966E+00  2812   0.710E+00    0.208E-01
DAV:   2    -0.145005753233E+03   -0.56471E-02   -0.60952E-02  3038   0.973E-01    0.116E-01
DAV:   3    -0.145005457427E+03    0.29581E-03   -0.75942E-04  3282   0.125E-01    0.794E-02
DAV:   4    -0.145005276871E+03    0.18056E-03   -0.60044E-04  3214   0.126E-01    0.334E-02
DAV:   5    -0.145005242159E+03    0.34713E-04   -0.36226E-04  3142   0.879E-02    0.240E-02
DAV:   6    -0.145005237782E+03    0.43764E-05   -0.83235E-05  2982   0.392E-02
  20 F= -.14500524E+03 E0= -.14500263E+03  d E =-.241793E-02
       N       E                     dE             d eps       ncg     rms          rms(c)
DAV:   1    -0.144983307556E+03    0.21935E-01   -0.10784E+01  2812   0.142E+01    0.421E-01
DAV:   2    -0.145006016033E+03   -0.22708E-01   -0.24610E-01  3040   0.196E+00    0.238E-01
DAV:   3    -0.145004769044E+03    0.12470E-02   -0.32441E-03  3258   0.260E-01    0.160E-01
DAV:   4    -0.145004019718E+03    0.74933E-03   -0.22871E-03  3182   0.248E-01    0.693E-02
DAV:   5    -0.145003838751E+03    0.18097E-03   -0.14503E-03  3158   0.183E-01    0.441E-02
DAV:   6    -0.145003818395E+03    0.20355E-04   -0.39908E-04  3142   0.868E-02    0.351E-02
DAV:   7    -0.145003782621E+03    0.35775E-04   -0.75831E-05  3056   0.382E-02    0.186E-02
DAV:   8    -0.145003734563E+03    0.48057E-04   -0.35130E-05  2698   0.576E-02    0.105E-02
DAV:   9    -0.145003690047E+03    0.44516E-04   -0.60485E-05  3168   0.832E-02    0.843E-03
DAV:  10    -0.145003666378E+03    0.23668E-04   -0.55563E-05  3042   0.603E-02    0.830E-03
DAV:  11    -0.145003651091E+03    0.15287E-04   -0.27417E-05  2362   0.451E-02    0.736E-03
DAV:  12    -0.145003643792E+03    0.72993E-05   -0.13792E-05  2148   0.335E-02
  21 F= -.14500364E+03 E0= -.14500110E+03  d E =-.823937E-03
       N       E                     dE             d eps       ncg     rms          rms(c)
DAV:   1    -0.144995482654E+03    0.81684E-02   -0.52400E+00  2808   0.989E+00    0.292E-01
DAV:   2    -0.145006434612E+03   -0.10952E-01   -0.11920E-01  3032   0.137E+00    0.163E-01
DAV:   3    -0.145005865214E+03    0.56940E-03   -0.16991E-03  3274   0.185E-01    0.114E-01
DAV:   4    -0.145005523120E+03    0.34209E-03   -0.12191E-03  3160   0.170E-01    0.509E-02
DAV:   5    -0.145005431653E+03    0.91467E-04   -0.63207E-04  3190   0.127E-01    0.370E-02
DAV:   6    -0.145005424854E+03    0.67986E-05   -0.21091E-04  3142   0.637E-02    0.295E-02
DAV:   7    -0.145005407960E+03    0.16894E-04   -0.73509E-05  2958   0.424E-02    0.131E-02
DAV:   8    -0.145005396201E+03    0.11760E-04   -0.21744E-05  2174   0.459E-02    0.973E-03
DAV:   9    -0.145005385914E+03    0.10287E-04   -0.26007E-05  2398   0.479E-02    0.717E-03
DAV:  10    -0.145005382169E+03    0.37445E-05   -0.22655E-05  2118   0.266E-02
  22 F= -.14500538E+03 E0= -.14500279E+03  d E =-.256231E-02
       N       E                     dE             d eps       ncg     rms          rms(c)
DAV:   1    -0.145005147703E+03    0.23821E-03   -0.64408E-01  2824   0.347E+00    0.101E-01
DAV:   2    -0.145006464966E+03   -0.13173E-02   -0.14271E-02  3062   0.474E-01    0.556E-02
DAV:   3    -0.145006399074E+03    0.65892E-04   -0.19679E-04  3274   0.601E-02    0.382E-02
DAV:   4    -0.145006360946E+03    0.38128E-04   -0.14395E-04  3104   0.577E-02    0.161E-02
DAV:   5    -0.145006354920E+03    0.60259E-05   -0.83710E-05  3070   0.379E-02    0.126E-02
DAV:   6    -0.145006353864E+03    0.10554E-05   -0.14522E-05  1596   0.176E-02
  23 F= -.14500635E+03 E0= -.14500378E+03  d E =-.971695E-03
       N       E                     dE             d eps       ncg     rms          rms(c)
DAV:   1    -0.145001627852E+03    0.47271E-02   -0.29290E+00  2820   0.740E+00    0.216E-01
DAV:   2    -0.145007637221E+03   -0.60094E-02   -0.65214E-02  3078   0.101E+00    0.120E-01
DAV:   3    -0.145007336070E+03    0.30115E-03   -0.92018E-04  3264   0.129E-01    0.826E-02
DAV:   4    -0.145007165440E+03    0.17063E-03   -0.65859E-04  3136   0.121E-01    0.355E-02
DAV:   5    -0.145007136642E+03    0.28798E-04   -0.36962E-04  3148   0.795E-02    0.268E-02
DAV:   6    -0.145007132891E+03    0.37501E-05   -0.75542E-05  2956   0.383E-02
  24 F= -.14500713E+03 E0= -.14500460E+03  d E =-.175072E-02
       N       E                     dE             d eps       ncg     rms          rms(c)
DAV:   1    -0.145006067956E+03    0.10687E-02   -0.10537E+00  2820   0.441E+00    0.139E-01
DAV:   2    -0.145008314933E+03   -0.22470E-02   -0.24957E-02  3112   0.627E-01    0.803E-02
DAV:   3    -0.145008180992E+03    0.13394E-03   -0.43889E-04  3240   0.972E-02    0.596E-02
DAV:   4    -0.145008097277E+03    0.83715E-04   -0.39831E-04  3086   0.104E-01    0.260E-02
DAV:   5    -0.145008072251E+03    0.25027E-04   -0.22346E-04  3324   0.823E-02    0.289E-02
DAV:   6    -0.145008065429E+03    0.68220E-05   -0.65163E-05  2822   0.367E-02
  25 F= -.14500807E+03 E0= -.14500554E+03  d E =-.932537E-03
       N       E                     dE             d eps       ncg     rms          rms(c)
DAV:   1    -0.145007908371E+03    0.16388E-03   -0.95489E-02  2820   0.133E+00    0.500E-02
DAV:   2    -0.145008102432E+03   -0.19406E-03   -0.24166E-03  3142   0.200E-01    0.248E-02
DAV:   3    -0.145008086659E+03    0.15773E-04   -0.61653E-05  3014   0.412E-02    0.200E-02
DAV:   4    -0.145008072124E+03    0.14536E-04   -0.42945E-05  2754   0.390E-02    0.903E-03
DAV:   5    -0.145008062042E+03    0.10082E-04   -0.25053E-05  2132   0.438E-02    0.102E-02
DAV:   6    -0.145008060489E+03    0.15532E-05   -0.24882E-05  2148   0.241E-02
  26 F= -.14500806E+03 E0= -.14500553E+03  d E =-.927598E-03
       N       E                     dE             d eps       ncg     rms          rms(c)
DAV:   1    -0.145008057260E+03    0.47825E-05   -0.34357E-03  2836   0.251E-01    0.798E-03
DAV:   2    -0.145008062135E+03   -0.48756E-05   -0.78380E-05  2920   0.344E-02    0.567E-03
DAV:   3    -0.145008060874E+03    0.12614E-05   -0.31761E-06  1538   0.624E-03    0.368E-03
DAV:   4    -0.145008059956E+03    0.91757E-06   -0.12986E-06  1486   0.620E-03    0.192E-03
DAV:   5    -0.145008059202E+03    0.75447E-06   -0.98005E-07  1640   0.773E-03    0.933E-04
DAV:   6    -0.145008058433E+03    0.76857E-06   -0.89125E-07  1712   0.989E-03
  27 F= -.14500806E+03 E0= -.14500553E+03  d E =-.925542E-03
       N       E                     dE             d eps       ncg     rms          rms(c)
DAV:   1    -0.145007927521E+03    0.13168E-03   -0.23420E-01  2884   0.210E+00    0.641E-02
DAV:   2    -0.145008386936E+03   -0.45941E-03   -0.56680E-03  3060   0.302E-01    0.392E-02
DAV:   3    -0.145008342044E+03    0.44892E-04   -0.16122E-04  3226   0.546E-02    0.287E-02
DAV:   4    -0.145008321375E+03    0.20668E-04   -0.50443E-05  2960   0.323E-02    0.177E-02
DAV:   5    -0.145008294858E+03    0.26517E-04   -0.40887E-05  2836   0.413E-02    0.729E-03
DAV:   6    -0.145008289949E+03    0.49089E-05   -0.22284E-05  2086   0.262E-02
  28 F= -.14500829E+03 E0= -.14500577E+03  d E =-.231516E-03
