 vasp.5.3.5 31Mar14 (build Apr 08 2024 10:12:10) complex                        
  
 executed on             LinuxIFC date 2024.07.29  19:13:01
 running on    8 total cores
 distrk:  each k-point on    8 cores,    1 groups
 distr:  one band on NCORES_PER_BAND=   4 cores,    2 groups


--------------------------------------------------------------------------------------------------------


 INCAR:
 POTCAR:    PAW_PBE O 08Apr2002                   
 POTCAR:    PAW_PBE Mg 13Apr2007                  
 POTCAR:    PAW_PBE Al 04Jan2001                  
 POTCAR:    PAW_PBE O 08Apr2002                   
   VRHFIN =O: s2p4                                                              
   LEXCH  = PE                                                                  
   EATOM  =   432.3788 eV,   31.7789 Ry                                         
                                                                                
   TITEL  = PAW_PBE O 08Apr2002                                                 
   LULTRA =        F    use ultrasoft PP ?                                      
   IUNSCR =        1    unscreen: 0-lin 1-nonlin 2-no                           
   RPACOR =    1.200    partial core radius                                     
   POMASS =   16.000; ZVAL   =    6.000    mass and valenz                      
   RCORE  =    1.520    outmost cutoff radius                                   
   RWIGS  =    1.550; RWIGS  =    0.820    wigner-seitz radius (au A)           
   ENMAX  =  400.000; ENMIN  =  300.000 eV                                      
   ICORE  =        2    local potential                                         
   LCOR   =        T    correct aug charges                                     
   LPAW   =        T    paw PP                                                  
   EAUG   =  605.392                                                            
   DEXC   =    0.000                                                            
   RMAX   =    1.553    core radius for proj-oper                               
   RAUG   =    1.300    factor for augmentation sphere                          
   RDEP   =    1.550    radius for radial grids                                 
   RDEPT  =    1.329    core radius for aug-charge                              
                                                                                
   Atomic configuration                                                         
    4 entries                                                                   
     n  l   j            E        occ.                                          
     1  0  0.50      -514.6923   2.0000                                         
     2  0  0.50       -23.9615   2.0000                                         
     2  1  0.50        -9.0305   4.0000                                         
     3  2  1.50        -9.5241   0.0000                                         
   Description                                                                  
     l       E           TYP  RCUT    TYP  RCUT                                 
     0    -23.9615318     23  1.200                                             
     0     -9.5240782     23  1.200                                             
     1     -9.0304911     23  1.520                                             
     1      8.1634956     23  1.520                                             
     2     -9.5240782      7  1.500                                             
  local pseudopotential read in
  partial core-charges read in
  partial kinetic energy density read in
  kinetic energy density of atom read in
  atomic valenz-charges read in
  non local Contribution for L=           0  read in
    real space projection operators read in
  non local Contribution for L=           0  read in
    real space projection operators read in
  non local Contribution for L=           1  read in
    real space projection operators read in
  non local Contribution for L=           1  read in
    real space projection operators read in
    PAW grid and wavefunctions read in
 
   number of l-projection  operators is LMAX  =           4
   number of lm-projection operators is LMMAX =           8
 
 POTCAR:    PAW_PBE Mg 13Apr2007                  
   VRHFIN =Mg: s2p0                                                             
   LEXCH  = PE                                                                  
   EATOM  =    23.0369 eV,    1.6932 Ry                                         
                                                                                
   TITEL  = PAW_PBE Mg 13Apr2007                                                
   LULTRA =        F    use ultrasoft PP ?                                      
   IUNSCR =        1    unscreen: 0-lin 1-nonlin 2-no                           
   RPACOR =    1.500    partial core radius                                     
   POMASS =   24.305; ZVAL   =    2.000    mass and valenz                      
   RCORE  =    2.000    outmost cutoff radius                                   
   RWIGS  =    2.880; RWIGS  =    1.524    wigner-seitz radius (au A)           
   ENMAX  =  200.000; ENMIN  =  100.000 eV                                      
   RCLOC  =    1.506    cutoff for local pot                                    
   LCOR   =        T    correct aug charges                                     
   LPAW   =        T    paw PP                                                  
   EAUG   =  454.734                                                            
   DEXC   =    0.000                                                            
   RMAX   =    2.045    core radius for proj-oper                               
   RAUG   =    1.300    factor for augmentation sphere                          
   RDEP   =    2.025    radius for radial grids                                 
   RDEPT  =    1.942    core radius for aug-charge                              
                                                                                
   Atomic configuration                                                         
    6 entries                                                                   
     n  l   j            E        occ.                                          
     1  0  0.50     -1259.6230   2.0000                                         
     2  0  0.50       -79.8442   2.0000                                         
     2  1  1.50       -46.6121   6.0000                                         
     3  0  0.50        -4.7055   2.0000                                         
     3  1  0.50        -1.3660   0.0000                                         
     3  2  1.50        -1.3606   0.0000                                         
   Description                                                                  
     l       E           TYP  RCUT    TYP  RCUT                                 
     0     -4.7054661     23  2.000                                             
     0     27.2116520     23  2.000                                             
     1      1.3605826     23  2.000                                             
     1     27.2116520     23  2.000                                             
     2     -1.3605826     23  2.000                                             
  local pseudopotential read in
  partial core-charges read in
  partial kinetic energy density read in
  atomic valenz-charges read in
  non local Contribution for L=           0  read in
    real space projection operators read in
  non local Contribution for L=           0  read in
    real space projection operators read in
  non local Contribution for L=           1  read in
    real space projection operators read in
  non local Contribution for L=           1  read in
    real space projection operators read in
  non local Contribution for L=           2  read in
    real space projection operators read in
    PAW grid and wavefunctions read in
 
   number of l-projection  operators is LMAX  =           5
   number of lm-projection operators is LMMAX =          13
 
 POTCAR:    PAW_PBE Al 04Jan2001                  
   VRHFIN =Al: s2p1                                                             
   LEXCH  = PE                                                                  
   EATOM  =    53.5387 eV,    3.9350 Ry                                         
                                                                                
   TITEL  = PAW_PBE Al 04Jan2001                                                
   LULTRA =        F    use ultrasoft PP ?                                      
   IUNSCR =        1    unscreen: 0-lin 1-nonlin 2-no                           
   RPACOR =    1.500    partial core radius                                     
   POMASS =   26.981; ZVAL   =    3.000    mass and valenz                      
   RCORE  =    1.900    outmost cutoff radius                                   
   RWIGS  =    2.650; RWIGS  =    1.402    wigner-seitz radius (au A)           
   ENMAX  =  240.300; ENMIN  =  180.225 eV                                      
   ICORE  =        2    local potential                                         
   LCOR   =        T    correct aug charges                                     
   LPAW   =        T    paw PP                                                  
   EAUG   =  291.052                                                            
   DEXC   =    0.000                                                            
   RMAX   =    1.939    core radius for proj-oper                               
   RAUG   =    1.300    factor for augmentation sphere                          
   RDEP   =    1.966    radius for radial grids                                 
   RDEPT  =    1.856    core radius for aug-charge                              
                                                                                
   Atomic configuration                                                         
    6 entries                                                                   
     n  l   j            E        occ.                                          
     1  0  0.50     -1511.1048   2.0000                                         
     2  0  0.50      -108.1629   2.0000                                         
     2  1  1.50       -69.6402   6.0000                                         
     3  0  0.50        -7.7528   2.0000                                         
     3  1  1.50        -2.7121   1.0000                                         
     3  2  2.50        -2.7212   0.0000                                         
   Description                                                                  
     l       E           TYP  RCUT    TYP  RCUT                                 
     0     -7.7528455     23  1.900                                             
     0     -3.3096929     23  1.900                                             
     1     -2.7120682     23  1.900                                             
     1     13.6058260     23  1.900                                             
     2     -2.7211652      7  1.900                                             
  local pseudopotential read in
  partial core-charges read in
  partial kinetic energy density read in
  atomic valenz-charges read in
  non local Contribution for L=           0  read in
    real space projection operators read in
  non local Contribution for L=           0  read in
    real space projection operators read in
  non local Contribution for L=           1  read in
    real space projection operators read in
  non local Contribution for L=           1  read in
    real space projection operators read in
    PAW grid and wavefunctions read in
 
   number of l-projection  operators is LMAX  =           4
   number of lm-projection operators is LMMAX =           8
 

 ----------------------------------------------------------------------------- 
|                                                                             |
|  ADVICE TO THIS USER RUNNING 'VASP/VAMP'   (HEAR YOUR MASTER'S VOICE ...):  |
|                                                                             |
|      You have a (more or less) 'large supercell' and for larger cells       |
|      it might be more efficient to use real space projection opertators     |
|      So try LREAL= Auto  in the INCAR   file.                               |
|      Mind: At the moment your POTCAR file does not contain real space       |
|       projectors, and has to be modified,  BUT if you                       |
|      want to do an extremely  accurate calculation you might also keep the  |
|      reciprocal projection scheme          (i.e. LREAL=.FALSE.)             |
|                                                                             |
 ----------------------------------------------------------------------------- 

  PAW_PBE O 08Apr2002                   :
 energy of atom  1       EATOM= -432.3788
 kinetic energy error for atom=    0.0208 (will be added to EATOM!!)
  PAW_PBE Mg 13Apr2007                  :
 energy of atom  2       EATOM=  -23.0369
 kinetic energy error for atom=    0.0000 (will be added to EATOM!!)
  PAW_PBE Al 04Jan2001                  :
 energy of atom  3       EATOM=  -53.5387
 kinetic energy error for atom=    0.0002 (will be added to EATOM!!)
 
 
 POSCAR: Layer                                   
  positions in direct lattice
  velocities in cartesian coordinates
 exchange correlation table for  LEXCH =        8
   RHO(1)=    0.500       N(1)  =     2000
   RHO(2)=  100.500       N(2)  =     4000
 


--------------------------------------------------------------------------------------------------------


 ion  position               nearest neighbor table
   1  0.000  0.000  0.275-  14 2.15  14 2.15  14 2.15  18 2.17  18 2.17  18 2.17
   2  0.333  0.667  0.330-  14 2.15  14 2.15  14 2.15  11 2.15  11 2.15  11 2.15
   3  0.000  0.000  0.441-  19 2.15  19 2.15  19 2.15  15 2.15  15 2.15  15 2.15
   4  0.333  0.667  0.497-  12 2.14  12 2.14  12 2.14  15 2.15  15 2.15  15 2.15
   5  0.000  0.000  0.607-  16 2.15  16 2.15  16 2.15  20 2.15  20 2.15  20 2.15
   6  0.333  0.667  0.663-  13 2.14  13 2.14  13 2.14  16 2.15  16 2.15  16 2.15
   7  0.000  0.000  0.774-  21 2.15  21 2.15  21 2.15  17 2.17  17 2.17  17 2.17
   8  0.667  0.333  0.386-  11 2.14  11 2.14  11 2.14  19 2.15  19 2.15  19 2.15
   9  0.667  0.333  0.552-  12 2.14  12 2.14  12 2.14  20 2.15  20 2.15  20 2.15
  10  0.667  0.333  0.718-  21 2.15  21 2.15  21 2.15  13 2.15  13 2.15  13 2.15
  11  0.000  0.000  0.358-   8 2.14   8 2.14   8 2.14   2 2.15   2 2.15   2 2.15  19 3.08  19 3.08
                            19 3.08  14 3.08  14 3.08  14 3.08
  12  0.000  0.000  0.524-   9 2.14   9 2.14   9 2.14   4 2.14   4 2.14   4 2.14  15 3.07  15 3.07
                            15 3.07  20 3.07  20 3.07  20 3.07
  13  0.000  0.000  0.691-   6 2.14   6 2.14   6 2.14  10 2.15  10 2.15  10 2.15  16 3.08  16 3.08
                            16 3.08  21 3.08  21 3.08  21 3.08
  14  0.667  0.333  0.302-   2 2.15   2 2.15   2 2.15   1 2.15   1 2.15   1 2.15  11 3.08  11 3.08
                            11 3.08  18 3.11  18 3.11  18 3.11
  15  0.667  0.333  0.469-   4 2.15   4 2.15   4 2.15   3 2.15   3 2.15   3 2.15  12 3.07  12 3.07
                            12 3.07  19 3.07  19 3.07  19 3.07
  16  0.667  0.333  0.635-   5 2.15   5 2.15   5 2.15   6 2.15   6 2.15   6 2.15  20 3.07  20 3.07
                            20 3.07  13 3.08  13 3.08  13 3.08
  17  0.667  0.333  0.803-   7 2.17   7 2.17   7 2.17  21 3.11  21 3.11  21 3.11  26 3.18  26 3.18
                            26 3.18
  18  0.333  0.667  0.246-   1 2.17   1 2.17   1 2.17  14 3.11  14 3.11  14 3.11  23 3.18  23 3.18
                            23 3.18
  19  0.333  0.667  0.413-   3 2.15   3 2.15   3 2.15   8 2.15   8 2.15   8 2.15  15 3.07  15 3.07
                            15 3.07  11 3.08  11 3.08  11 3.08
  20  0.333  0.667  0.580-   9 2.15   9 2.15   9 2.15   5 2.15   5 2.15   5 2.15  12 3.07  12 3.07
                            12 3.07  16 3.07  16 3.07  16 3.07
  21  0.333  0.667  0.746-  10 2.15  10 2.15  10 2.15   7 2.15   7 2.15   7 2.15  13 3.08  13 3.08
                            13 3.08  17 3.11  17 3.11  17 3.11
  22  0.000  0.000  0.024-  25 2.99  25 2.99  25 2.99  27 2.99  27 2.99  27 2.99
  23  0.000  0.000  0.188-  24 3.09  24 3.09  24 3.09  18 3.18  18 3.18  18 3.18
  24  0.667  0.333  0.132-  25 3.02  25 3.02  25 3.02  23 3.09  23 3.09  23 3.09
  25  0.333  0.667  0.078-  22 2.99  22 2.99  22 2.99  24 3.02  24 3.02  24 3.02
  26  0.000  0.000  0.861-  28 3.09  28 3.09  28 3.09  17 3.18  17 3.18  17 3.18
  27  0.667  0.333  0.971-  22 2.99  22 2.99  22 2.99  28 3.02  28 3.02  28 3.02
  28  0.333  0.667  0.917-  27 3.02  27 3.02  27 3.02  26 3.09  26 3.09  26 3.09
 
  LATTYP: Found a hexagonal cell.
 ALAT       =     2.9932160299
 C/A-ratio  =    15.3155981205
  
  Lattice vectors:
  
 A1 = (   2.5922013181,  -1.4966076735,   0.0000000000)
 A2 = (   0.0000000000,   2.9932153469,   0.0000000000)
 A3 = (  -0.0000000000,   0.0000000000,  45.8428938024)


Analysis of symmetry for initial positions (statically):
=====================================================================
 Subroutine PRICEL returns:
 Original cell was already a primitive cell.
 

 Routine SETGRP: Setting up the symmetry group for a 
 hexagonal supercell.


 Subroutine GETGRP returns: Found 12 space group operations
 (whereof  6 operations were pure point group operations)
 out of a pool of 24 trial point group operations.


The static configuration has the point symmetry C_3v.
 The point group associated with its full space group is D_3d.


Analysis of symmetry for dynamics (positions and initial velocities):
=====================================================================
 Subroutine PRICEL returns:
 Original cell was already a primitive cell.
 

 Routine SETGRP: Setting up the symmetry group for a 
 hexagonal supercell.


 Subroutine GETGRP returns: Found 12 space group operations
 (whereof  6 operations were pure point group operations)
 out of a pool of 24 trial point group operations.


The dynamic configuration has the point symmetry C_3v.
 The point group associated with its full space group is D_3d.


Analysis of constrained symmetry for selective dynamics:
=====================================================================
 Subroutine PRICEL returns:
 Original cell was already a primitive cell.
 

 Routine SETGRP: Setting up the symmetry group for a 
 hexagonal supercell.


 Subroutine GETGRP returns: Found 12 space group operations
 (whereof  6 operations were pure point group operations)
 out of a pool of 24 trial point group operations.


The constrained configuration has the point symmetry C_3v.
 The point group associated with its full space group is D_3d.
 
 
 KPOINTS: K-Spacing Value to Generate K-Mesh: 0.02

Automatic generation of k-mesh.
Space group operators:
 irot       det(A)        alpha          n_x          n_y          n_z        tau_x        tau_y        tau_z
    1     1.000000     0.000000     1.000000     0.000000     0.000000     0.000000     0.000000     0.000000
    2     1.000000   120.000000     0.000000     0.000000    -1.000000     0.000000     0.000000     0.000000
    3     1.000000   120.000000    -0.000000     0.000000     1.000000     0.000000     0.000000     0.000000
    4    -1.000000   180.000000    -0.866025     0.500000    -0.000000     0.000000     0.000000     0.000000
    5    -1.000000   180.000000     0.000000     1.000000     0.000000     0.000000     0.000000     0.000000
    6    -1.000000   180.000000    -0.866025    -0.500000    -0.000000     0.000000     0.000000     0.000000
    7    -1.000000     0.000000     1.000000     0.000000     0.000000     0.000000    -0.000000     0.048638
    8    -1.000000   120.000000     0.000000     0.000000    -1.000000     0.000000    -0.000000     0.048638
    9    -1.000000   120.000000    -0.000000     0.000000     1.000000     0.000001    -0.000000     0.048638
   10     1.000000   180.000000    -0.866025     0.500000    -0.000000     0.000001    -0.000000     0.048638
   11     1.000000   180.000000     0.000000     1.000000     0.000000     0.000000    -0.000000     0.048638
   12     1.000000   180.000000    -0.866025    -0.500000    -0.000000     0.000000    -0.000000     0.048638
 
 Subroutine IBZKPT returns following result:
 ===========================================
 
 Found     21 irreducible k-points:
 
 Following reciprocal coordinates:
            Coordinates               Weight
  0.000000  0.000000  0.000000      1.000000
  0.076923  0.000000 -0.000000      6.000000
  0.153846  0.000000  0.000000      6.000000
  0.230769  0.000000  0.000000      6.000000
  0.307692  0.000000 -0.000000      6.000000
  0.384615  0.000000  0.000000      6.000000
  0.461538  0.000000  0.000000      6.000000
  0.076923  0.076923 -0.000000      6.000000
  0.153846  0.076923  0.000000     12.000000
  0.230769  0.076923  0.000000     12.000000
  0.307692  0.076923 -0.000000     12.000000
  0.384615  0.076923 -0.000000     12.000000
  0.461538  0.076923 -0.000000      6.000000
  0.153846  0.153846  0.000000      6.000000
  0.230769  0.153846  0.000000     12.000000
  0.307692  0.153846  0.000000     12.000000
  0.384615  0.153846  0.000000     12.000000
  0.230769  0.230769  0.000000      6.000000
  0.307692  0.230769  0.000000     12.000000
  0.384615  0.230769  0.000000      6.000000
  0.307692  0.307692 -0.000000      6.000000
 
 Following cartesian coordinates:
            Coordinates               Weight
  0.000000  0.000000  0.000000      1.000000
  0.029675  0.000000  0.000000      6.000000
  0.059350  0.000000  0.000000      6.000000
  0.089024  0.000000  0.000000      6.000000
  0.118699  0.000000  0.000000      6.000000
  0.148374  0.000000  0.000000      6.000000
  0.178049  0.000000  0.000000      6.000000
  0.044512  0.025699  0.000000      6.000000
  0.074187  0.025699  0.000000     12.000000
  0.103862  0.025699  0.000000     12.000000
  0.133537  0.025699  0.000000     12.000000
  0.163211  0.025699  0.000000     12.000000
  0.192886  0.025699  0.000000      6.000000
  0.089024  0.051398  0.000000      6.000000
  0.118699  0.051398  0.000000     12.000000
  0.148374  0.051398  0.000000     12.000000
  0.178049  0.051398  0.000000     12.000000
  0.133537  0.077097  0.000000      6.000000
  0.163211  0.077097  0.000000     12.000000
  0.192886  0.077097  0.000000      6.000000
  0.178049  0.102797  0.000000      6.000000
 


--------------------------------------------------------------------------------------------------------




 Dimension of arrays:
   k-points           NKPTS =     21   k-points in BZ     NKDIM =     21   number of bands    NBANDS=     66
   number of dos      NEDOS =    301   number of ions     NIONS =     28
   non local maximal  LDIM  =      5   non local SUM 2l+1 LMDIM =     13
   total plane-waves  NPLWV = 201600
   max r-space proj   IRMAX =      1   max aug-charges    IRDMAX= 192790
   dimension x,y,z NGX =    24 NGY =   24 NGZ =  350
   dimension x,y,z NGXF=    48 NGYF=   48 NGZF=  700
   support grid    NGXF=    96 NGYF=   96 NGZF= 1400
   ions per type =              10  11   7
 NGX,Y,Z   is equivalent  to a cutoff of  13.33, 13.33, 12.69 a.u.
 NGXF,Y,Z  is equivalent  to a cutoff of  26.66, 26.66, 25.38 a.u.


 I would recommend the setting:
   dimension x,y,z NGX =    22 NGY =   22 NGZ =  341
 SYSTEM =  unknown system                          
 POSCAR =  Layer                                   

 Startparameter for this run:
   NWRITE =      2    write-flag & timer
   PREC   = accura    normal or accurate (medium, high low for compatibility)
   ISTART =      0    job   : 0-new  1-cont  2-samecut
   ICHARG =      2    charge: 1-file 2-atom 10-const
   ISPIN  =      1    spin polarized calculation?
   LNONCOLLINEAR =      F non collinear calculations
   LSORBIT =      F    spin-orbit coupling
   INIWAV =      1    electr: 0-lowe 1-rand  2-diag
   LASPH  =      F    aspherical Exc in radial PAW
   METAGGA=      F    non-selfconsistent MetaGGA calc.

 Electronic Relaxation 1
   ENCUT  =  520.0 eV  38.22 Ry    6.18 a.u.   5.57  5.57 85.24*2*pi/ulx,y,z
   ENINI  =  520.0     initial cutoff
   ENAUG  =  605.4 eV  augmentation charge cutoff
   NELM   =    100;   NELMIN=  6; NELMDL=  0     # of ELM steps 
   EDIFF  = 0.1E-04   stopping-criterion for ELM
   LREAL  =      F    real-space projection
   NLSPLINE    = F    spline interpolate recip. space projectors
   LCOMPAT=      F    compatible to vasp.4.4
   GGA_COMPAT  = T    GGA compatible to vasp.4.4-vasp.4.6
   LMAXPAW     = -100 max onsite density
   LMAXMIX     =    2 max onsite mixed and CHGCAR
   VOSKOWN=      0    Vosko Wilk Nusair interpolation
   ROPT   =    0.00000   0.00000   0.00000
 Ionic relaxation
   EDIFFG = -.2E-01   stopping-criterion for IOM
   NSW    =    500    number of steps for IOM
   NBLOCK =      1;   KBLOCK =    500    inner block; outer block 
   IBRION =      2    ionic relax: 0-MD 1-quasi-New 2-CG
   NFREE  =      1    steps in history (QN), initial steepest desc. (CG)
   ISIF   =      2    stress and relaxation
   IWAVPR =     11    prediction:  0-non 1-charg 2-wave 3-comb
   ISYM   =      2    0-nonsym 1-usesym 2-fastsym
   LCORR  =      T    Harris-Foulkes like correction to forces

   POTIM  = 0.5000    time-step for ionic-motion
   TEIN   =    0.0    initial temperature
   TEBEG  =    0.0;   TEEND  =   0.0 temperature during run
   SMASS  =  -3.00    Nose mass-parameter (am)
   estimated Nose-frequenzy (Omega)   =  0.10E-29 period in steps =****** mass=  -0.205E-27a.u.
   SCALEE = 1.0000    scale energy and forces
   NPACO  =    256;   APACO  = 16.0  distance and # of slots for P.C.
   PSTRESS=    0.0 pullay stress

  Mass of Ions in am
   POMASS =  16.00 24.30 26.98
  Ionic Valenz
   ZVAL   =   6.00  2.00  3.00
  Atomic Wigner-Seitz radii
   RWIGS  =  -1.00 -1.00 -1.00
  virtual crystal weights 
   VCA    =   1.00  1.00  1.00
   NELECT =     103.0000    total number of electrons
   NUPDOWN=      -1.0000    fix difference up-down

 DOS related values:
   EMIN   =  10.00;   EMAX   =-10.00  energy-range for DOS
   EFERMI =   0.00
   ISMEAR =     0;   SIGMA  =   0.05  broadening in eV -4-tet -1-fermi 0-gaus

 Electronic relaxation 2 (details)
   IALGO  =     38    algorithm
   LDIAG  =      T    sub-space diagonalisation (order eigenvalues)
   LSUBROT=      F    optimize rotation matrix (better conditioning)
   TURBO    =      0    0=normal 1=particle mesh
   IRESTART =      0    0=no restart 2=restart with 2 vectors
   NREBOOT  =      0    no. of reboots
   NMIN     =      0    reboot dimension
   EREF     =   0.00    reference energy to select bands
   IMIX   =      4    mixing-type and parameters
     AMIX     =   0.40;   BMIX     =  1.00
     AMIX_MAG =   1.60;   BMIX_MAG =  1.00
     AMIN     =   0.01
     WC   =   100.;   INIMIX=   1;  MIXPRE=   1;  MAXMIX= -45

 Intra band minimization:
   WEIMIN = 0.0010     energy-eigenvalue tresh-hold
   EBREAK =  0.38E-07  absolut break condition
   DEPER  =   0.30     relativ break condition  

   TIME   =   0.40     timestep for ELM

  volume/ion in A,a.u.               =      12.70        85.73
  Fermi-wavevector in a.u.,A,eV,Ry     =   1.083081  2.046727 15.960516  1.173065
  Thomas-Fermi vector in A             =   2.219138
 
 Write flags
   LWAVE  =      F    write WAVECAR
   LCHARG =      T    write CHGCAR
   LVTOT  =      F    write LOCPOT, total local potential
   LVHAR  =      F    write LOCPOT, Hartree potential only
   LELF   =      F    write electronic localiz. function (ELF)
   LORBIT =      0    0 simple, 1 ext, 2 COOP (PROOUT)


 Dipole corrections
   LMONO  =      F    monopole corrections only (constant potential shift)
   LDIPOL =      F    correct potential (dipole corrections)
   IDIPOL =      0    1-x, 2-y, 3-z, 4-all directions 
   EPSILON=  1.0000000 bulk dielectric constant

 Exchange correlation treatment:
   GGA     =    --    GGA type
   LEXCH   =     8    internal setting for exchange type
   VOSKOWN=      0    Vosko Wilk Nusair interpolation
   LHFCALC =     F    Hartree Fock is set to
   LHFONE  =     F    Hartree Fock one center treatment
   AEXX    =    0.0000 exact exchange contribution

 Linear response parameters
   LEPSILON=     F    determine dielectric tensor
   LRPA    =     F    only Hartree local field effects (RPA)
   LNABLA  =     F    use nabla operator in PAW spheres
   LVEL    =     F    velocity operator in full k-point grid
   LINTERFAST=   F  fast interpolation
   KINTER  =     0    interpolate to denser k-point grid
   CSHIFT  =0.1000    complex shift for real part using Kramers Kronig
   OMEGAMAX=  -1.0    maximum frequency
   DEG_THRESHOLD= 0.2000000E-02 threshold for treating states as degnerate
   RTIME   =    0.100 relaxation time in fs

 Orbital magnetization related:
   ORBITALMAG=     F  switch on orbital magnetization
   LCHIMAG   =     F  perturbation theory with respect to B field
   DQ        =  0.001000  dq finite difference perturbation B field



--------------------------------------------------------------------------------------------------------


 conjugate gradient relaxation of ions
   using selective dynamics as specified on POSCAR
 charge density and potential will be updated during run
 non-spin polarized calculation
 Variant of blocked Davidson
 Davidson routine will perform the subspace rotation
 perform sub-space diagonalisation
    after iterative eigenvector-optimisation
 modified Broyden-mixing scheme, WC =      100.0
 initial mixing is a Kerker type mixing with AMIX =  0.4000 and BMIX =      1.0000
 Hartree-type preconditioning will be used
 using additional bands           14
 reciprocal scheme for non local part
 use partial core corrections
 calculate Harris-corrections to forces 
   (improved forces if not selfconsistent)
 use gradient corrections 
 use of overlap-Matrix (Vanderbilt PP)
 Gauss-broadening in eV      SIGMA  =   0.05


--------------------------------------------------------------------------------------------------------


  energy-cutoff  :      520.00
  volume of cell :      355.70
      direct lattice vectors                 reciprocal lattice vectors
     2.592201318 -1.496607673  0.000000000     0.385772507  0.000000000  0.000000000
     0.000000000  2.993215347  0.000000000     0.192886253  0.334088892  0.000000000
    -0.000000000  0.000000000 45.842893802     0.000000000  0.000000000  0.021813632

  length of vectors
     2.993216030  2.993215347 45.842893802     0.385772507  0.385772595  0.021813632


 
 k-points in units of 2pi/SCALE and weight: K-Spacing Value to Generate K-Mesh: 0.02
   0.00000000  0.00000000  0.00000000       0.006
   0.02967481  0.00000000  0.00000000       0.036
   0.05934962  0.00000000  0.00000000       0.036
   0.08902442  0.00000000  0.00000000       0.036
   0.11869923  0.00000000  0.00000000       0.036
   0.14837404  0.00000000  0.00000000       0.036
   0.17804885  0.00000000  0.00000000       0.036
   0.04451221  0.02569915  0.00000000       0.036
   0.07418702  0.02569915  0.00000000       0.071
   0.10386183  0.02569915  0.00000000       0.071
   0.13353664  0.02569915  0.00000000       0.071
   0.16321145  0.02569915  0.00000000       0.071
   0.19288625  0.02569915  0.00000000       0.036
   0.08902442  0.05139829  0.00000000       0.036
   0.11869923  0.05139829  0.00000000       0.071
   0.14837404  0.05139829  0.00000000       0.071
   0.17804885  0.05139829  0.00000000       0.071
   0.13353664  0.07709744  0.00000000       0.036
   0.16321145  0.07709744  0.00000000       0.071
   0.19288625  0.07709744  0.00000000       0.036
   0.17804885  0.10279658  0.00000000       0.036
 
 k-points in reciprocal lattice and weights: K-Spacing Value to Generate K-Mesh: 0.02
   0.00000000  0.00000000  0.00000000       0.006
   0.07692308  0.00000000 -0.00000000       0.036
   0.15384615  0.00000000  0.00000000       0.036
   0.23076923  0.00000000  0.00000000       0.036
   0.30769231  0.00000000 -0.00000000       0.036
   0.38461538  0.00000000  0.00000000       0.036
   0.46153846  0.00000000  0.00000000       0.036
   0.07692308  0.07692308 -0.00000000       0.036
   0.15384615  0.07692308  0.00000000       0.071
   0.23076923  0.07692308  0.00000000       0.071
   0.30769231  0.07692308 -0.00000000       0.071
   0.38461538  0.07692308 -0.00000000       0.071
   0.46153846  0.07692308 -0.00000000       0.036
   0.15384615  0.15384615  0.00000000       0.036
   0.23076923  0.15384615  0.00000000       0.071
   0.30769231  0.15384615  0.00000000       0.071
   0.38461538  0.15384615  0.00000000       0.071
   0.23076923  0.23076923  0.00000000       0.036
   0.30769231  0.23076923  0.00000000       0.071
   0.38461538  0.23076923  0.00000000       0.036
   0.30769231  0.30769231 -0.00000000       0.036
 
 position of ions in fractional coordinates (direct lattice) 
   0.00000000  0.00000000  0.27467944
   0.33333300  0.66666700  0.33015389
   0.00000000  0.00000000  0.44113726
   0.33333300  0.66666700  0.49660640
   0.00000000  0.00000000  0.60749993
   0.33333300  0.66666700  0.66300406
   0.00000000  0.00000000  0.77396575
   0.66666700  0.33333300  0.38563618
   0.66666700  0.33333300  0.55202914
   0.66666700  0.33333300  0.71848933
   0.00000000  0.00000000  0.35792034
   0.00000000  0.00000000  0.52431823
   0.00000000  0.00000000  0.69072093
   0.66666700  0.33333300  0.30243199
   0.66666700  0.33333300  0.46887556
   0.66666700  0.33333300  0.63523301
   0.66666700  0.33333300  0.80265162
   0.33333300  0.66666700  0.24599372
   0.33333300  0.66666700  0.41340637
   0.33333300  0.66666700  0.57976158
   0.33333300  0.66666700  0.74621128
   0.00000000  0.00000000  0.02431958
   0.00000000  0.00000000  0.18768104
   0.66666700  0.33333300  0.13172286
   0.33333300  0.66666700  0.07763488
   0.00000000  0.00000000  0.86096522
   0.66666700  0.33333300  0.97100339
   0.33333300  0.66666700  0.91691803
 
 position of ions in cartesian coordinates  (Angst):
  -0.00000000  0.00000000 12.59210061
   0.86406624  1.49660917 15.13520964
  -0.00000000  0.00000000 20.22300838
   0.86406624  1.49660917 22.76587464
  -0.00000000  0.00000000 27.84955500
   0.86406624  1.49660917 30.39402474
  -0.00000000  0.00000000 35.48082957
   1.72813508 -0.00000150 17.67867824
   1.72813508 -0.00000150 25.30661340
   1.72813508 -0.00000150 32.93763013
  -0.00000000  0.00000000 16.40810409
  -0.00000000  0.00000000 24.03626511
  -0.00000000  0.00000000 31.66464631
   1.72813508 -0.00000150 13.86435764
   1.72813508 -0.00000150 21.49461243
   1.72813508 -0.00000150 29.12091935
   1.72813508 -0.00000150 36.79587291
   0.86406624  1.49660917 11.27706378
   0.86406624  1.49660917 18.95174422
   0.86406624  1.49660917 26.57794852
   0.86406624  1.49660917 34.20848437
  -0.00000000  0.00000000  1.11487998
  -0.00000000  0.00000000  8.60384207
   1.72813508 -0.00000150  6.03855695
   0.86406624  1.49660917  3.55900766
  -0.00000000  0.00000000 39.46913694
   1.72813508 -0.00000150 44.51360513
   0.86406624  1.49660917 42.03417575
 


--------------------------------------------------------------------------------------------------------


 k-point  1 :   0.0000 0.0000 0.0000  plane waves:    9723
 k-point  2 :   0.0769 0.0000-0.0000  plane waves:    9707
 k-point  3 :   0.1538 0.0000 0.0000  plane waves:    9673
 k-point  4 :   0.2308 0.0000 0.0000  plane waves:    9638
 k-point  5 :   0.3077 0.0000-0.0000  plane waves:    9572
 k-point  6 :   0.3846 0.0000 0.0000  plane waves:    9526
 k-point  7 :   0.4615 0.0000 0.0000  plane waves:    9534
 k-point  8 :   0.0769 0.0769-0.0000  plane waves:    9685
 k-point  9 :   0.1538 0.0769 0.0000  plane waves:    9652
 k-point 10 :   0.2308 0.0769 0.0000  plane waves:    9597
 k-point 11 :   0.3077 0.0769-0.0000  plane waves:    9570
 k-point 12 :   0.3846 0.0769-0.0000  plane waves:    9516
 k-point 13 :   0.4615 0.0769-0.0000  plane waves:    9498
 k-point 14 :   0.1538 0.1538 0.0000  plane waves:    9623
 k-point 15 :   0.2308 0.1538 0.0000  plane waves:    9578
 k-point 16 :   0.3077 0.1538 0.0000  plane waves:    9556
 k-point 17 :   0.3846 0.1538 0.0000  plane waves:    9516
 k-point 18 :   0.2308 0.2308 0.0000  plane waves:    9568
 k-point 19 :   0.3077 0.2308 0.0000  plane waves:    9525
 k-point 20 :   0.3846 0.2308 0.0000  plane waves:    9554
 k-point 21 :   0.3077 0.3077-0.0000  plane waves:    9572

 maximum and minimum number of plane-waves per node :      2458     2359

 maximum number of plane-waves:      9723
 maximum index in each direction: 
   IXMAX=    5   IYMAX=    5   IZMAX=   85
   IXMIN=   -6   IYMIN=   -5   IZMIN=  -85

 NGX is ok and might be reduce to  24
 NGY is ok and might be reduce to  22
 NGZ is ok and might be reduce to 342

 parallel 3D FFT for wavefunctions:
    minimum data exchange during FFTs selected (reduces bandwidth)
 parallel 3D FFT for charge:
    minimum data exchange during FFTs selected (reduces bandwidth)


 total amount of memory used by VASP on root node   158986. kBytes
========================================================================

   base      :      30000. kBytes
   nonl-proj :      16870. kBytes
   fftplans  :      60348. kBytes
   grid      :      24192. kBytes
   one-center:         56. kBytes
   wavefun   :      27520. kBytes
 
     INWAV:  cpu time    0.00: real time    0.00
 Broyden mixing: mesh for mixing (old mesh)
   NGX = 11   NGY = 11   NGZ =171
  (NGX  = 48   NGY  = 48   NGZ  =700)
  gives a total of  20691 points

 initial charge density was supplied:
 charge density of overlapping atoms calculated
 number of electron     103.0000000 magnetization 
 keeping initial charge density in first step


--------------------------------------------------------------------------------------------------------


 Maximum index for augmentation-charges        23219 (set IRDMAX)


--------------------------------------------------------------------------------------------------------


 First call to EWALD:  gamma=   0.250
 Maximum number of real-space cells 7x 7x 1
 Maximum number of reciprocal cells 1x 1x15

 FEWALD executed in parallel
    FEWALD:  cpu time    0.00: real time    0.00


----------------------------------------- Iteration    1(   1)  ---------------------------------------


    POTLOK:  cpu time    0.11: real time    0.11
    SETDIJ:  cpu time    0.11: real time    0.11
     EDDAV:  cpu time    5.05: real time    5.08
       DOS:  cpu time    0.00: real time    0.00
    --------------------------------------------
      LOOP:  cpu time    5.28: real time    5.31

 eigenvalue-minimisations  :  2788
 total energy-change (2. order) : 0.5212219E+03  (-0.4527713E+04)
 number of electron     103.0000000 magnetization 
 augmentation part      103.0000000 magnetization 

 Free energy of the ion-electron system (eV)
  ---------------------------------------------------
  alpha Z        PSCENC =       136.47153414
  Ewald energy   TEWEN  =     18414.39138690
  -Hartree energ DENC   =    -23626.02917173
  -exchange      EXHF   =         0.00000000
  -V(xc)+E(xc)   XCENC  =      -440.71015752
  PAW double counting   =      4647.26951674    -3871.08436696
  entropy T*S    EENTRO =        -0.00547323
  eigenvalues    EBANDS =       309.16403986
  atomic energy  EATOM  =      4951.75456612
  ---------------------------------------------------
  free energy    TOTEN  =       521.22187431 eV

  energy without entropy =      521.22734754  energy(sigma->0) =      521.22461092


--------------------------------------------------------------------------------------------------------




----------------------------------------- Iteration    1(   2)  ---------------------------------------


     EDDAV:  cpu time    6.09: real time    6.10
       DOS:  cpu time    0.00: real time    0.00
    --------------------------------------------
      LOOP:  cpu time    6.10: real time    6.10

 eigenvalue-minimisations  :  3600
 total energy-change (2. order) :-0.6214518E+03  (-0.5887593E+03)
 number of electron     103.0000000 magnetization 
 augmentation part      103.0000000 magnetization 

 Free energy of the ion-electron system (eV)
  ---------------------------------------------------
  alpha Z        PSCENC =       136.47153414
  Ewald energy   TEWEN  =     18414.39138690
  -Hartree energ DENC   =    -23626.02917173
  -exchange      EXHF   =         0.00000000
  -V(xc)+E(xc)   XCENC  =      -440.71015752
  PAW double counting   =      4647.26951674    -3871.08436696
  entropy T*S    EENTRO =        -0.00378237
  eigenvalues    EBANDS =      -312.28943539
  atomic energy  EATOM  =      4951.75456612
  ---------------------------------------------------
  free energy    TOTEN  =      -100.22991008 eV

  energy without entropy =     -100.22612771  energy(sigma->0) =     -100.22801890


--------------------------------------------------------------------------------------------------------




----------------------------------------- Iteration    1(   3)  ---------------------------------------


     EDDAV:  cpu time    5.48: real time    5.49
       DOS:  cpu time    0.00: real time    0.00
    --------------------------------------------
      LOOP:  cpu time    5.48: real time    5.49

 eigenvalue-minimisations  :  3208
 total energy-change (2. order) :-0.6027371E+02  (-0.5998269E+02)
 number of electron     103.0000000 magnetization 
 augmentation part      103.0000000 magnetization 

 Free energy of the ion-electron system (eV)
  ---------------------------------------------------
  alpha Z        PSCENC =       136.47153414
  Ewald energy   TEWEN  =     18414.39138690
  -Hartree energ DENC   =    -23626.02917173
  -exchange      EXHF   =         0.00000000
  -V(xc)+E(xc)   XCENC  =      -440.71015752
  PAW double counting   =      4647.26951674    -3871.08436696
  entropy T*S    EENTRO =        -0.00373415
  eigenvalues    EBANDS =      -372.56318935
  atomic energy  EATOM  =      4951.75456612
  ---------------------------------------------------
  free energy    TOTEN  =      -160.50361582 eV

  energy without entropy =     -160.49988167  energy(sigma->0) =     -160.50174874


--------------------------------------------------------------------------------------------------------




----------------------------------------- Iteration    1(   4)  ---------------------------------------


     EDDAV:  cpu time    5.55: real time    5.56
       DOS:  cpu time    0.00: real time    0.00
    --------------------------------------------
      LOOP:  cpu time    5.55: real time    5.56

 eigenvalue-minimisations  :  3224
 total energy-change (2. order) :-0.7954932E+00  (-0.7942956E+00)
 number of electron     103.0000000 magnetization 
 augmentation part      103.0000000 magnetization 

 Free energy of the ion-electron system (eV)
  ---------------------------------------------------
  alpha Z        PSCENC =       136.47153414
  Ewald energy   TEWEN  =     18414.39138690
  -Hartree energ DENC   =    -23626.02917173
  -exchange      EXHF   =         0.00000000
  -V(xc)+E(xc)   XCENC  =      -440.71015752
  PAW double counting   =      4647.26951674    -3871.08436696
  entropy T*S    EENTRO =        -0.00383822
  eigenvalues    EBANDS =      -373.35857847
  atomic energy  EATOM  =      4951.75456612
  ---------------------------------------------------
  free energy    TOTEN  =      -161.29910901 eV

  energy without entropy =     -161.29527078  energy(sigma->0) =     -161.29718989


--------------------------------------------------------------------------------------------------------




----------------------------------------- Iteration    1(   5)  ---------------------------------------


     EDDAV:  cpu time    5.67: real time    5.67
       DOS:  cpu time    0.00: real time    0.00
    CHARGE:  cpu time    0.44: real time    0.44
    MIXING:  cpu time    0.01: real time    0.01
    --------------------------------------------
      LOOP:  cpu time    6.12: real time    6.12

 eigenvalue-minimisations  :  3344
 total energy-change (2. order) :-0.1278451E-01  (-0.1277793E-01)
 number of electron     103.0000001 magnetization 
 augmentation part        7.7096092 magnetization 

 Broyden mixing:
  rms(total) = 0.23058E+01    rms(broyden)= 0.23054E+01
  rms(prec ) = 0.23564E+01
  weight for this iteration     100.00

 Free energy of the ion-electron system (eV)
  ---------------------------------------------------
  alpha Z        PSCENC =       136.47153414
  Ewald energy   TEWEN  =     18414.39138690
  -Hartree energ DENC   =    -23626.02917173
  -exchange      EXHF   =         0.00000000
  -V(xc)+E(xc)   XCENC  =      -440.71015752
  PAW double counting   =      4647.26951674    -3871.08436696
  entropy T*S    EENTRO =        -0.00385070
  eigenvalues    EBANDS =      -373.37135050
  atomic energy  EATOM  =      4951.75456612
  ---------------------------------------------------
  free energy    TOTEN  =      -161.31189351 eV

  energy without entropy =     -161.30804281  energy(sigma->0) =     -161.30996816


--------------------------------------------------------------------------------------------------------




----------------------------------------- Iteration    1(   6)  ---------------------------------------


    POTLOK:  cpu time    0.11: real time    0.11
    SETDIJ:  cpu time    0.11: real time    0.11
     EDDAV:  cpu time    5.39: real time    5.40
       DOS:  cpu time    0.00: real time    0.00
    CHARGE:  cpu time    0.44: real time    0.44
    MIXING:  cpu time    0.00: real time    0.00
    --------------------------------------------
      LOOP:  cpu time    6.05: real time    6.06

 eigenvalue-minimisations  :  3140
 total energy-change (2. order) : 0.1605194E+02  (-0.9397486E+01)
 number of electron     103.0000001 magnetization 
 augmentation part        6.2221969 magnetization 

 Broyden mixing:
  rms(total) = 0.78612E+00    rms(broyden)= 0.78519E+00
  rms(prec ) = 0.79249E+00
  weight for this iteration     100.00

 eigenvalues of (default mixing * dielectric matrix)
  average eigenvalue GAMMA=   0.8359
  0.8359

 Free energy of the ion-electron system (eV)
  ---------------------------------------------------
  alpha Z        PSCENC =       136.47153414
  Ewald energy   TEWEN  =     18414.39138690
  -Hartree energ DENC   =    -23817.89640319
  -exchange      EXHF   =         0.00000000
  -V(xc)+E(xc)   XCENC  =      -427.21731447
  PAW double counting   =      5478.48783271    -4705.74168153
  entropy T*S    EENTRO =        -0.00330827
  eigenvalues    EBANDS =      -175.50656564
  atomic energy  EATOM  =      4951.75456612
  ---------------------------------------------------
  free energy    TOTEN  =      -145.25995324 eV

  energy without entropy =     -145.25664497  energy(sigma->0) =     -145.25829911


--------------------------------------------------------------------------------------------------------




----------------------------------------- Iteration    1(   7)  ---------------------------------------


    POTLOK:  cpu time    0.11: real time    0.11
    SETDIJ:  cpu time    0.11: real time    0.11
     EDDAV:  cpu time    5.35: real time    5.36
       DOS:  cpu time    0.00: real time    0.00
    CHARGE:  cpu time    0.44: real time    0.44
    MIXING:  cpu time    0.00: real time    0.00
    --------------------------------------------
      LOOP:  cpu time    6.02: real time    6.03

 eigenvalue-minimisations  :  3094
 total energy-change (2. order) : 0.1366029E+00  (-0.1982305E+00)
 number of electron     103.0000001 magnetization 
 augmentation part        6.2684777 magnetization 

 Broyden mixing:
  rms(total) = 0.47833E+00    rms(broyden)= 0.47832E+00
  rms(prec ) = 0.48297E+00
  weight for this iteration     100.00

 eigenvalues of (default mixing * dielectric matrix)
  average eigenvalue GAMMA=   1.6388
  0.9727  2.3048

 Free energy of the ion-electron system (eV)
  ---------------------------------------------------
  alpha Z        PSCENC =       136.47153414
  Ewald energy   TEWEN  =     18414.39138690
  -Hartree energ DENC   =    -23815.18603464
  -exchange      EXHF   =         0.00000000
  -V(xc)+E(xc)   XCENC  =      -426.90195118
  PAW double counting   =      5756.64896194    -4983.40470947
  entropy T*S    EENTRO =        -0.00398240
  eigenvalues    EBANDS =      -178.89312173
  atomic energy  EATOM  =      4951.75456612
  ---------------------------------------------------
  free energy    TOTEN  =      -145.12335031 eV

  energy without entropy =     -145.11936791  energy(sigma->0) =     -145.12135911


--------------------------------------------------------------------------------------------------------




----------------------------------------- Iteration    1(   8)  ---------------------------------------


    POTLOK:  cpu time    0.12: real time    0.12
    SETDIJ:  cpu time    0.14: real time    0.14
     EDDAV:  cpu time    5.43: real time    5.44
       DOS:  cpu time    0.00: real time    0.00
    CHARGE:  cpu time    0.44: real time    0.44
    MIXING:  cpu time    0.00: real time    0.00
    --------------------------------------------
      LOOP:  cpu time    6.13: real time    6.14

 eigenvalue-minimisations  :  3156
 total energy-change (2. order) : 0.1001017E+00  (-0.6851845E-01)
 number of electron     103.0000001 magnetization 
 augmentation part        6.3257768 magnetization 

 Broyden mixing:
  rms(total) = 0.89412E-01    rms(broyden)= 0.89362E-01
  rms(prec ) = 0.11055E+00
  weight for this iteration     100.00

 eigenvalues of (default mixing * dielectric matrix)
  average eigenvalue GAMMA=   1.3689
  2.4271  0.9150  0.7646

 Free energy of the ion-electron system (eV)
  ---------------------------------------------------
  alpha Z        PSCENC =       136.47153414
  Ewald energy   TEWEN  =     18414.39138690
  -Hartree energ DENC   =    -23820.27874400
  -exchange      EXHF   =         0.00000000
  -V(xc)+E(xc)   XCENC  =      -425.42481643
  PAW double counting   =      6234.50565433    -5460.88629460
  entropy T*S    EENTRO =        -0.00500928
  eigenvalues    EBANDS =      -175.55152582
  atomic energy  EATOM  =      4951.75456612
  ---------------------------------------------------
  free energy    TOTEN  =      -145.02324864 eV

  energy without entropy =     -145.01823936  energy(sigma->0) =     -145.02074400


--------------------------------------------------------------------------------------------------------




----------------------------------------- Iteration    1(   9)  ---------------------------------------


    POTLOK:  cpu time    0.11: real time    0.11
    SETDIJ:  cpu time    0.11: real time    0.11
     EDDAV:  cpu time    5.33: real time    5.33
       DOS:  cpu time    0.00: real time    0.00
    CHARGE:  cpu time    0.46: real time    0.46
    MIXING:  cpu time    0.01: real time    0.01
    --------------------------------------------
      LOOP:  cpu time    6.02: real time    6.03

 eigenvalue-minimisations  :  3100
 total energy-change (2. order) : 0.2802841E-01  (-0.1925748E-01)
 number of electron     103.0000001 magnetization 
 augmentation part        6.3049419 magnetization 

 Broyden mixing:
  rms(total) = 0.54641E-01    rms(broyden)= 0.54640E-01
  rms(prec ) = 0.55869E-01
  weight for this iteration     100.00

 eigenvalues of (default mixing * dielectric matrix)
  average eigenvalue GAMMA=   1.3345
  2.4497  0.9733  0.9576  0.9576

 Free energy of the ion-electron system (eV)
  ---------------------------------------------------
  alpha Z        PSCENC =       136.47153414
  Ewald energy   TEWEN  =     18414.39138690
  -Hartree energ DENC   =    -23824.58392943
  -exchange      EXHF   =         0.00000000
  -V(xc)+E(xc)   XCENC  =      -425.03823703
  PAW double counting   =      6260.42391198    -5486.84583344
  entropy T*S    EENTRO =        -0.00493269
  eigenvalues    EBANDS =      -171.56368677
  atomic energy  EATOM  =      4951.75456612
  ---------------------------------------------------
  free energy    TOTEN  =      -144.99522023 eV

  energy without entropy =     -144.99028754  energy(sigma->0) =     -144.99275389


--------------------------------------------------------------------------------------------------------




----------------------------------------- Iteration    1(  10)  ---------------------------------------


    POTLOK:  cpu time    0.11: real time    0.11
    SETDIJ:  cpu time    0.12: real time    0.12
     EDDAV:  cpu time    5.42: real time    5.43
       DOS:  cpu time    0.00: real time    0.00
    CHARGE:  cpu time    0.44: real time    0.44
    MIXING:  cpu time    0.01: real time    0.01
    --------------------------------------------
      LOOP:  cpu time    6.10: real time    6.10

 eigenvalue-minimisations  :  3126
 total energy-change (2. order) : 0.2033098E-02  (-0.3777246E-02)
 number of electron     103.0000001 magnetization 
 augmentation part        6.2856408 magnetization 

 Broyden mixing:
  rms(total) = 0.27513E-01    rms(broyden)= 0.27497E-01
  rms(prec ) = 0.27781E-01
  weight for this iteration     100.00

 eigenvalues of (default mixing * dielectric matrix)
  average eigenvalue GAMMA=   1.2826
  2.5061  1.7111  0.8916  0.8916  0.4128

 Free energy of the ion-electron system (eV)
  ---------------------------------------------------
  alpha Z        PSCENC =       136.47153414
  Ewald energy   TEWEN  =     18414.39138690
  -Hartree energ DENC   =    -23826.46820770
  -exchange      EXHF   =         0.00000000
  -V(xc)+E(xc)   XCENC  =      -424.86443010
  PAW double counting   =      6251.24971663    -5477.70415402
  entropy T*S    EENTRO =        -0.00481638
  eigenvalues    EBANDS =      -169.81878274
  atomic energy  EATOM  =      4951.75456612
  ---------------------------------------------------
  free energy    TOTEN  =      -144.99318714 eV

  energy without entropy =     -144.98837076  energy(sigma->0) =     -144.99077895


--------------------------------------------------------------------------------------------------------




----------------------------------------- Iteration    1(  11)  ---------------------------------------


    POTLOK:  cpu time    0.11: real time    0.11
    SETDIJ:  cpu time    0.11: real time    0.11
     EDDAV:  cpu time    5.40: real time    5.40
       DOS:  cpu time    0.00: real time    0.00
    CHARGE:  cpu time    0.44: real time    0.44
    MIXING:  cpu time    0.00: real time    0.00
    --------------------------------------------
      LOOP:  cpu time    6.07: real time    6.08

 eigenvalue-minimisations  :  3144
 total energy-change (2. order) :-0.1255129E-02  (-0.4941150E-03)
 number of electron     103.0000001 magnetization 
 augmentation part        6.2843986 magnetization 

 Broyden mixing:
  rms(total) = 0.17283E-01    rms(broyden)= 0.17281E-01
  rms(prec ) = 0.17501E-01
  weight for this iteration     100.00

 eigenvalues of (default mixing * dielectric matrix)
  average eigenvalue GAMMA=   1.3832
  2.7834  2.2079  0.9864  0.8408  0.8408  0.6400

 Free energy of the ion-electron system (eV)
  ---------------------------------------------------
  alpha Z        PSCENC =       136.47153414
  Ewald energy   TEWEN  =     18414.39138690
  -Hartree energ DENC   =    -23826.92354597
  -exchange      EXHF   =         0.00000000
  -V(xc)+E(xc)   XCENC  =      -424.78378486
  PAW double counting   =      6226.35415685    -5452.81871970
  entropy T*S    EENTRO =        -0.00474923
  eigenvalues    EBANDS =      -169.43528651
  atomic energy  EATOM  =      4951.75456612
  ---------------------------------------------------
  free energy    TOTEN  =      -144.99444227 eV

  energy without entropy =     -144.98969303  energy(sigma->0) =     -144.99206765


--------------------------------------------------------------------------------------------------------




----------------------------------------- Iteration    1(  12)  ---------------------------------------


    POTLOK:  cpu time    0.11: real time    0.11
    SETDIJ:  cpu time    0.11: real time    0.11
     EDDAV:  cpu time    5.86: real time    5.87
       DOS:  cpu time    0.00: real time    0.00
    CHARGE:  cpu time    0.44: real time    0.44
    MIXING:  cpu time    0.00: real time    0.00
    --------------------------------------------
      LOOP:  cpu time    6.53: real time    6.54

 eigenvalue-minimisations  :  3496
 total energy-change (2. order) :-0.1447133E-03  (-0.1126391E-03)
 number of electron     103.0000001 magnetization 
 augmentation part        6.2816896 magnetization 

 Broyden mixing:
  rms(total) = 0.85509E-02    rms(broyden)= 0.85503E-02
  rms(prec ) = 0.87241E-02
  weight for this iteration     100.00

 eigenvalues of (default mixing * dielectric matrix)
  average eigenvalue GAMMA=   1.3821
  2.8265  2.4651  1.0058  1.0058  0.8808  0.8808  0.6100

 Free energy of the ion-electron system (eV)
  ---------------------------------------------------
  alpha Z        PSCENC =       136.47153414
  Ewald energy   TEWEN  =     18414.39138690
  -Hartree energ DENC   =    -23827.27967895
  -exchange      EXHF   =         0.00000000
  -V(xc)+E(xc)   XCENC  =      -424.72007094
  PAW double counting   =      6204.37496418    -5430.85733156
  entropy T*S    EENTRO =        -0.00477584
  eigenvalues    EBANDS =      -169.12518103
  atomic energy  EATOM  =      4951.75456612
  ---------------------------------------------------
  free energy    TOTEN  =      -144.99458698 eV

  energy without entropy =     -144.98981114  energy(sigma->0) =     -144.99219906


--------------------------------------------------------------------------------------------------------




----------------------------------------- Iteration    1(  13)  ---------------------------------------


    POTLOK:  cpu time    0.11: real time    0.11
    SETDIJ:  cpu time    0.11: real time    0.11
     EDDAV:  cpu time    5.41: real time    5.42
       DOS:  cpu time    0.00: real time    0.00
    CHARGE:  cpu time    0.44: real time    0.44
    MIXING:  cpu time    0.01: real time    0.01
    --------------------------------------------
      LOOP:  cpu time    6.08: real time    6.09

 eigenvalue-minimisations  :  3148
 total energy-change (2. order) : 0.7439274E-04  (-0.1402717E-03)
 number of electron     103.0000001 magnetization 
 augmentation part        6.2858651 magnetization 

 Broyden mixing:
  rms(total) = 0.27820E-02    rms(broyden)= 0.27754E-02
  rms(prec ) = 0.28775E-02
  weight for this iteration     100.00

 eigenvalues of (default mixing * dielectric matrix)
  average eigenvalue GAMMA=   1.2464
  2.8557  2.4712  0.9843  0.9843  0.8834  0.8834  0.6062  0.3024

 Free energy of the ion-electron system (eV)
  ---------------------------------------------------
  alpha Z        PSCENC =       136.47153414
  Ewald energy   TEWEN  =     18414.39138690
  -Hartree energ DENC   =    -23826.76379909
  -exchange      EXHF   =         0.00000000
  -V(xc)+E(xc)   XCENC  =      -424.75090000
  PAW double counting   =      6195.65537678    -5422.13188170
  entropy T*S    EENTRO =        -0.00483247
  eigenvalues    EBANDS =      -169.61596326
  atomic energy  EATOM  =      4951.75456612
  ---------------------------------------------------
  free energy    TOTEN  =      -144.99451259 eV

  energy without entropy =     -144.98968011  energy(sigma->0) =     -144.99209635


--------------------------------------------------------------------------------------------------------




----------------------------------------- Iteration    1(  14)  ---------------------------------------


    POTLOK:  cpu time    0.11: real time    0.11
    SETDIJ:  cpu time    0.11: real time    0.11
     EDDAV:  cpu time    5.33: real time    5.34
       DOS:  cpu time    0.00: real time    0.00
    CHARGE:  cpu time    0.44: real time    0.44
    MIXING:  cpu time    0.01: real time    0.01
    --------------------------------------------
      LOOP:  cpu time    6.00: real time    6.01

 eigenvalue-minimisations  :  3080
 total energy-change (2. order) : 0.2121791E-05  (-0.1004321E-04)
 number of electron     103.0000001 magnetization 
 augmentation part        6.2859230 magnetization 

 Broyden mixing:
  rms(total) = 0.25787E-02    rms(broyden)= 0.25785E-02
  rms(prec ) = 0.26678E-02
  weight for this iteration     100.00

 eigenvalues of (default mixing * dielectric matrix)
  average eigenvalue GAMMA=   1.2567
  2.8204  2.5241  1.0527  1.0527  0.8630  0.8630  0.6096  0.7624  0.7624

 Free energy of the ion-electron system (eV)
  ---------------------------------------------------
  alpha Z        PSCENC =       136.47153414
  Ewald energy   TEWEN  =     18414.39138690
  -Hartree energ DENC   =    -23826.74563799
  -exchange      EXHF   =         0.00000000
  -V(xc)+E(xc)   XCENC  =      -424.75164763
  PAW double counting   =      6194.96293828    -5421.43945643
  entropy T*S    EENTRO =        -0.00483459
  eigenvalues    EBANDS =      -169.63335926
  atomic energy  EATOM  =      4951.75456612
  ---------------------------------------------------
  free energy    TOTEN  =      -144.99451046 eV

  energy without entropy =     -144.98967587  energy(sigma->0) =     -144.99209317


--------------------------------------------------------------------------------------------------------




----------------------------------------- Iteration    1(  15)  ---------------------------------------


    POTLOK:  cpu time    0.11: real time    0.11
    SETDIJ:  cpu time    0.12: real time    0.12
     EDDAV:  cpu time    3.68: real time    3.69
       DOS:  cpu time    0.00: real time    0.00
    --------------------------------------------
      LOOP:  cpu time    3.91: real time    3.92

 eigenvalue-minimisations  :  1766
 total energy-change (2. order) : 0.2755482E-05  (-0.1084081E-05)
 number of electron     103.0000001 magnetization 
 augmentation part        6.2859230 magnetization 

 Free energy of the ion-electron system (eV)
  ---------------------------------------------------
  alpha Z        PSCENC =       136.47153414
  Ewald energy   TEWEN  =     18414.39138690
  -Hartree energ DENC   =    -23826.69840584
  -exchange      EXHF   =         0.00000000
  -V(xc)+E(xc)   XCENC  =      -424.75501623
  PAW double counting   =      6194.38093332    -5420.85609560
  entropy T*S    EENTRO =        -0.00483980
  eigenvalues    EBANDS =      -169.67857073
  atomic energy  EATOM  =      4951.75456612
  ---------------------------------------------------
  free energy    TOTEN  =      -144.99450771 eV

  energy without entropy =     -144.98966791  energy(sigma->0) =     -144.99208781


--------------------------------------------------------------------------------------------------------




 average (electrostatic) potential at core
  the test charge radii are     0.7215  1.0714  1.0406
  (the norm of the test charge is              1.0000)
       1 -70.2413       2 -70.1429       3 -70.1795       4 -70.1848       5 -70.1689
       6 -70.1444       7 -70.2432       8 -70.1571       9 -70.1809      10 -70.1335
      11 -35.8205      12 -35.8498      13 -35.8075      14 -35.8240      15 -35.8542
      16 -35.8302      17 -36.0861      18 -36.0758      19 -35.8437      20 -35.8461
      21 -35.8185      22 -74.6450      23 -74.6079      24 -74.6638      25 -74.5729
      26 -74.6136      27 -74.5755      28 -74.6702
 
 
 
 E-fermi :   6.1548     XC(G=0): -10.2249     alpha+bet :-12.2236


 k-point     1 :       0.0000    0.0000    0.0000
  band No.  band energies     occupation 
      1     -14.3956      2.00000
      2     -14.3247      2.00000
      3     -14.2418      2.00000
      4     -14.1307      2.00000
      5     -13.9938      2.00000
      6     -13.8432      2.00000
      7     -13.6918      2.00000
      8     -13.5495      2.00000
      9     -13.4319      2.00000
     10     -13.3718      2.00000
     11      -3.8311      2.00000
     12      -3.4510      2.00000
     13      -2.9948      2.00000
     14      -2.4093      2.00000
     15      -1.9270      2.00000
     16      -1.7468      2.00000
     17      -1.7205      2.00000
     18      -1.3286      2.00000
     19      -1.1821      2.00000
     20      -0.6079      2.00000
     21      -0.5831      2.00000
     22       0.0513      2.00000
     23       0.3390      2.00000
     24       0.9287      2.00000
     25       1.1143      2.00000
     26       1.7756      2.00000
     27       2.0589      2.00000
     28       2.1592      2.00000
     29       2.1592      2.00000
     30       2.2063      2.00000
     31       2.2063      2.00000
     32       2.2508      2.00000
     33       2.2508      2.00000
     34       2.3060      2.00000
     35       2.3060      2.00000
     36       2.3546      2.00000
     37       2.3756      2.00000
     38       2.3756      2.00000
     39       2.4513      2.00000
     40       2.4513      2.00000
     41       2.5253      2.00000
     42       2.5253      2.00000
     43       2.5936      2.00000
     44       2.5936      2.00000
     45       2.6535      2.00000
     46       2.6535      2.00000
     47       2.6755      2.00000
     48       2.6755      2.00000
     49       3.2675      2.00000
     50       4.4494      2.00000
     51       5.7508      2.00000
     52       6.8843      0.00000
     53       6.9441      0.00000
     54       7.6107      0.00000
     55       7.8046      0.00000
     56       8.6097      0.00000
     57       8.6795      0.00000
     58       9.5027      0.00000
     59       9.5274      0.00000
     60      10.0790      0.00000
     61      10.1808      0.00000
     62      10.3580      0.00000
     63      10.5836      0.00000
     64      11.6758      0.00000
     65      13.1911      0.00000
     66      14.1045      0.00000

 k-point     2 :       0.0769    0.0000   -0.0000
  band No.  band energies     occupation 
      1     -14.3431      2.00000
      2     -14.2735      2.00000
      3     -14.1927      2.00000
      4     -14.0844      2.00000
      5     -13.9508      2.00000
      6     -13.8042      2.00000
      7     -13.6569      2.00000
      8     -13.5186      2.00000
      9     -13.4043      2.00000
     10     -13.3466      2.00000
     11      -3.7009      2.00000
     12      -3.3211      2.00000
     13      -2.8656      2.00000
     14      -2.2826      2.00000
     15      -1.8393      2.00000
     16      -1.6444      2.00000
     17      -1.6410      2.00000
     18      -1.2482      2.00000
     19      -1.1130      2.00000
     20      -0.5648      2.00000
     21      -0.4994      2.00000
     22       0.0791      2.00000
     23       0.3575      2.00000
     24       0.9788      2.00000
     25       1.0597      2.00000
     26       1.6722      2.00000
     27       1.9271      2.00000
     28       1.9618      2.00000
     29       1.9819      2.00000
     30       2.0322      2.00000
     31       2.0990      2.00000
     32       2.1152      2.00000
     33       2.1626      2.00000
     34       2.1761      2.00000
     35       2.2074      2.00000
     36       2.2619      2.00000
     37       2.2632      2.00000
     38       2.3069      2.00000
     39       2.3335      2.00000
     40       2.3660      2.00000
     41       2.3983      2.00000
     42       2.4098      2.00000
     43       2.4158      2.00000
     44       2.4588      2.00000
     45       2.4845      2.00000
     46       2.5535      2.00000
     47       2.6138      2.00000
     48       2.6361      2.00000
     49       3.3952      2.00000
     50       4.5865      2.00000
     51       5.9111      2.00000
     52       7.1108      0.00000
     53       7.2759      0.00000
     54       7.8455      0.00000
     55       8.0472      0.00000
     56       8.8053      0.00000
     57       8.8883      0.00000
     58       9.7068      0.00000
     59       9.7421      0.00000
     60      10.3244      0.00000
     61      10.4275      0.00000
     62      10.6387      0.00000
     63      10.7976      0.00000
     64      11.7866      0.00000
     65      13.2156      0.00000
     66      14.0428      0.00000

 k-point     3 :       0.1538    0.0000    0.0000
  band No.  band energies     occupation 
      1     -14.1928      2.00000
      2     -14.1269      2.00000
      3     -14.0521      2.00000
      4     -13.9523      2.00000
      5     -13.8291      2.00000
      6     -13.6941      2.00000
      7     -13.5590      2.00000
      8     -13.4325      2.00000
      9     -13.3279      2.00000
     10     -13.2766      2.00000
     11      -3.3109      2.00000
     12      -2.9320      2.00000
     13      -2.4789      2.00000
     14      -1.9063      2.00000
     15      -1.5931      2.00000
     16      -1.4161      2.00000
     17      -1.3551      2.00000
     18      -1.0075      2.00000
     19      -0.9340      2.00000
     20      -0.4619      2.00000
     21      -0.3070      2.00000
     22       0.1658      2.00000
     23       0.3036      2.00000
     24       0.8026      2.00000
     25       1.0002      2.00000
     26       1.3172      2.00000
     27       1.3427      2.00000
     28       1.3955      2.00000
     29       1.4374      2.00000
     30       1.4721      2.00000
     31       1.5761      2.00000
     32       1.6356      2.00000
     33       1.7995      2.00000
     34       1.9260      2.00000
     35       1.9968      2.00000
     36       2.0448      2.00000
     37       2.0577      2.00000
     38       2.0904      2.00000
     39       2.1475      2.00000
     40       2.1609      2.00000
     41       2.2192      2.00000
     42       2.2420      2.00000
     43       2.2972      2.00000
     44       2.3736      2.00000
     45       2.4442      2.00000
     46       2.5057      2.00000
     47       2.5287      2.00000
     48       2.6642      2.00000
     49       3.7285      2.00000
     50       4.9478      2.00000
     51       6.3090      0.00001
     52       7.6165      0.00000
     53       8.0485      0.00000
     54       8.4495      0.00000
     55       8.6480      0.00000
     56       9.2713      0.00000
     57       9.4156      0.00000
     58      10.1880      0.00000
     59      10.2608      0.00000
     60      10.8942      0.00000
     61      11.0072      0.00000
     62      11.3074      0.00000
     63      11.3491      0.00000
     64      11.3877      0.00000
     65      11.6937      0.00000
     66      11.9669      0.00000

 k-point     4 :       0.2308    0.0000    0.0000
  band No.  band energies     occupation 
      1     -13.9664      2.00000
      2     -13.9067      2.00000
      3     -13.8418      2.00000
      4     -13.7561      2.00000
      5     -13.6497      2.00000
      6     -13.5336      2.00000
      7     -13.4181      2.00000
      8     -13.3103      2.00000
      9     -13.2207      2.00000
     10     -13.1794      2.00000
     11      -2.6631      2.00000
     12      -2.2860      2.00000
     13      -1.8388      2.00000
     14      -1.3055      2.00000
     15      -1.2282      2.00000
     16      -1.0924      2.00000
     17      -0.9900      2.00000
     18      -0.7498      2.00000
     19      -0.6706      2.00000
     20      -0.3672      2.00000
     21      -0.3012      2.00000
     22      -0.0209      2.00000
     23       0.1634      2.00000
     24       0.3311      2.00000
     25       0.5255      2.00000
     26       0.5837      2.00000
     27       0.6262      2.00000
     28       0.6982      2.00000
     29       0.8490      2.00000
     30       0.9596      2.00000
     31       1.2224      2.00000
     32       1.4268      2.00000
     33       1.6407      2.00000
     34       1.8373      2.00000
     35       1.8419      2.00000
     36       1.8859      2.00000
     37       1.9124      2.00000
     38       1.9325      2.00000
     39       1.9910      2.00000
     40       2.0201      2.00000
     41       2.0643      2.00000
     42       2.1251      2.00000
     43       2.1441      2.00000
     44       2.2223      2.00000
     45       2.2947      2.00000
     46       2.3575      2.00000
     47       2.3814      2.00000
     48       3.1779      2.00000
     49       4.2725      2.00000
     50       5.5030      2.00000
     51       6.8672      0.00000
     52       8.1552      0.00000
     53       8.8143      0.00000
     54       8.9582      0.00000
     55       9.1070      0.00000
     56       9.1795      0.00000
     57       9.4864      0.00000
     58       9.5828      0.00000
     59       9.8095      0.00000
     60      10.0969      0.00000
     61      10.1737      0.00000
     62      10.6658      0.00000
     63      10.8398      0.00000
     64      10.9714      0.00000
     65      11.4233      0.00000
     66      11.7056      0.00000

 k-point     5 :       0.3077    0.0000   -0.0000
  band No.  band energies     occupation 
      1     -13.7001      2.00000
      2     -13.6489      2.00000
      3     -13.5976      2.00000
      4     -13.5310      2.00000
      5     -13.4473      2.00000
      6     -13.3561      2.00000
      7     -13.2663      2.00000
      8     -13.1829      2.00000
      9     -13.1124      2.00000
     10     -13.0833      2.00000
     11      -1.7607      2.00000
     12      -1.3883      2.00000
     13      -0.9858      2.00000
     14      -0.9479      2.00000
     15      -0.8944      2.00000
     16      -0.8638      2.00000
     17      -0.8057      2.00000
     18      -0.7420      2.00000
     19      -0.6755      2.00000
     20      -0.6024      2.00000
     21      -0.4554      2.00000
     22      -0.3796      2.00000
     23      -0.2471      2.00000
     24      -0.1790      2.00000
     25      -0.0887      2.00000
     26       0.0349      2.00000
     27       0.3721      2.00000
     28       0.4914      2.00000
     29       0.7779      2.00000
     30       1.0158      2.00000
     31       1.2858      2.00000
     32       1.5259      2.00000
     33       1.5660      2.00000
     34       1.6765      2.00000
     35       1.6770      2.00000
     36       1.7255      2.00000
     37       1.7728      2.00000
     38       1.8323      2.00000
     39       1.8493      2.00000
     40       1.9069      2.00000
     41       1.9719      2.00000
     42       1.9881      2.00000
     43       2.0677      2.00000
     44       2.1415      2.00000
     45       2.2054      2.00000
     46       2.2299      2.00000
     47       2.7100      2.00000
     48       3.9380      2.00000
     49       5.0240      2.00000
     50       6.1088      1.80704
     51       6.4570      0.00000
     52       6.8612      0.00000
     53       7.2678      0.00000
     54       7.6847      0.00000
     55       7.9230      0.00000
     56       8.5402      0.00000
     57       9.0796      0.00000
     58       9.4303      0.00000
     59       9.6586      0.00000
     60       9.8894      0.00000
     61      10.1518      0.00000
     62      10.3517      0.00000
     63      10.4557      0.00000
     64      10.8505      0.00000
     65      11.0231      0.00000
     66      11.3383      0.00000

 k-point     6 :       0.3846    0.0000    0.0000
  band No.  band energies     occupation 
      1     -13.4436      2.00000
      2     -13.4028      2.00000
      3     -13.3677      2.00000
      4     -13.3244      2.00000
      5     -13.2675      2.00000
      6     -13.2051      2.00000
      7     -13.1443      2.00000
      8     -13.0883      2.00000
      9     -13.0383      2.00000
     10     -13.0212      2.00000
     11      -1.3791      2.00000
     12      -1.2748      2.00000
     13      -1.1432      2.00000
     14      -1.0910      2.00000
     15      -1.0010      2.00000
     16      -0.9677      2.00000
     17      -0.8763      2.00000
     18      -0.8041      2.00000
     19      -0.7455      2.00000
     20      -0.7079      2.00000
     21      -0.6053      2.00000
     22      -0.2432      2.00000
     23      -0.0878      2.00000
     24       0.0761      2.00000
     25       0.2857      2.00000
     26       0.4254      2.00000
     27       0.7462      2.00000
     28       0.9124      2.00000
     29       1.0787      2.00000
     30       1.2754      2.00000
     31       1.3213      2.00000
     32       1.4516      2.00000
     33       1.5490      2.00000
     34       1.5983      2.00000
     35       1.6290      2.00000
     36       1.6460      2.00000
     37       1.7061      2.00000
     38       1.7479      2.00000
     39       1.7815      2.00000
     40       1.8434      2.00000
     41       1.8634      2.00000
     42       1.9439      2.00000
     43       2.0186      2.00000
     44       2.0831      2.00000
     45       2.1080      2.00000
     46       2.6140      2.00000
     47       3.7416      2.00000
     48       4.2780      2.00000
     49       4.6020      2.00000
     50       4.9099      2.00000
     51       5.2272      2.00000
     52       5.7736      2.00000
     53       6.1273      1.56441
     54       6.4994      0.00000
     55       7.3082      0.00000
     56       7.4056      0.00000
     57       8.4698      0.00000
     58       8.6315      0.00000
     59       9.4491      0.00000
     60       9.8570      0.00000
     61      10.0550      0.00000
     62      10.3426      0.00000
     63      10.4538      0.00000
     64      10.6894      0.00000
     65      11.1248      0.00000
     66      11.2457      0.00000

 k-point     7 :       0.4615    0.0000    0.0000
  band No.  band energies     occupation 
      1     -13.2612      2.00000
      2     -13.2310      2.00000
      3     -13.2107      2.00000
      4     -13.1904      2.00000
      5     -13.1590      2.00000
      6     -13.1226      2.00000
      7     -13.0872      2.00000
      8     -13.0552      2.00000
      9     -13.0214      2.00000
     10     -13.0107      2.00000
     11      -1.6833      2.00000
     12      -1.5771      2.00000
     13      -1.4433      2.00000
     14      -1.2793      2.00000
     15      -1.2367      2.00000
     16      -1.1590      2.00000
     17      -1.1023      2.00000
     18      -1.0628      2.00000
     19      -0.9961      2.00000
     20      -0.9859      2.00000
     21       0.4118      2.00000
     22       0.5320      2.00000
     23       0.7084      2.00000
     24       0.7935      2.00000
     25       0.8903      2.00000
     26       0.9872      2.00000
     27       1.0547      2.00000
     28       1.1261      2.00000
     29       1.1788      2.00000
     30       1.3106      2.00000
     31       1.4792      2.00000
     32       1.5285      2.00000
     33       1.5764      2.00000
     34       1.5805      2.00000
     35       1.6368      2.00000
     36       1.6480      2.00000
     37       1.7125      2.00000
     38       1.7714      2.00000
     39       1.7948      2.00000
     40       1.8757      2.00000
     41       1.9507      2.00000
     42       2.0155      2.00000
     43       2.0406      2.00000
     44       2.2546      2.00000
     45       2.4341      2.00000
     46       2.8041      2.00000
     47       3.0014      2.00000
     48       3.2504      2.00000
     49       3.7692      2.00000
     50       4.0321      2.00000
     51       4.6254      2.00000
     52       5.1462      2.00000
     53       5.5920      2.00000
     54       6.2345      0.02429
     55       6.7340      0.00000
     56       7.2498      0.00000
     57       7.8731      0.00000
     58       8.3618      0.00000
     59       8.8714      0.00000
     60       9.5688      0.00000
     61      10.0380      0.00000
     62      10.1275      0.00000
     63      10.4873      0.00000
[...]
     17      -0.8289      2.00000
     18      -0.7432      2.00000
     19      -0.6097      2.00000
     20      -0.4749      2.00000
     21      -0.0802      2.00000
     22       0.0611      2.00000
     23       0.1970      2.00000
     24       0.3458      2.00000
     25       0.5140      2.00000
     26       0.5210      2.00000
     27       0.6079      2.00000
     28       0.6663      2.00000
     29       0.7318      2.00000
     30       0.8545      2.00000
     31       0.9127      2.00000
     32       0.9745      2.00000
     33       0.9980      2.00000
     34       1.0844      2.00000
     35       1.2313      2.00000
     36       1.3479      2.00000
     37       1.3761      2.00000
     38       1.4076      2.00000
     39       1.5017      2.00000
     40       1.5743      2.00000
     41       1.6657      2.00000
     42       1.7636      2.00000
     43       1.8357      2.00000
     44       2.4342      2.00000
     45       3.1607      2.00000
     46       4.0589      2.00000
     47       4.2433      2.00000
     48       4.5894      2.00000
     49       4.9609      2.00000
     50       5.2223      2.00000
     51       5.6699      2.00000
     52       5.8274      2.00000
     53       6.1107      1.91602
     54       6.3404      0.00000
     55       6.4845      0.00000
     56       6.7113      0.00000
     57       7.0740      0.00000
     58       7.4381      0.00000
     59       7.5574      0.00000
     60       7.9669      0.00000
     61       8.3444      0.00000
     62       8.7160      0.00000
     63       8.9375      0.00000
     64       9.3709      0.00000
     65       9.9052      0.00000
     66      10.0478      0.00000

 k-point    20 :       0.3846    0.2308    0.0000
  band No.  band energies     occupation 
      1     -13.1639      2.00000
      2     -13.1477      2.00000
      3     -13.1364      2.00000
      4     -13.1255      2.00000
      5     -13.1055      2.00000
      6     -13.0892      2.00000
      7     -13.0724      2.00000
      8     -13.0562      2.00000
      9     -13.0413      2.00000
     10     -13.0112      2.00000
     11      -1.2622      2.00000
     12      -1.1687      2.00000
     13      -1.0428      2.00000
     14      -0.8830      2.00000
     15      -0.8348      2.00000
     16      -0.7977      2.00000
     17      -0.7641      2.00000
     18      -0.7444      2.00000
     19      -0.7114      2.00000
     20      -0.6841      2.00000
     21       0.1112      2.00000
     22       0.1465      2.00000
     23       0.1889      2.00000
     24       0.2048      2.00000
     25       0.2572      2.00000
     26       0.2885      2.00000
     27       0.3334      2.00000
     28       0.4800      2.00000
     29       0.6336      2.00000
     30       0.7856      2.00000
     31       1.0119      2.00000
     32       1.0324      2.00000
     33       1.1966      2.00000
     34       1.2104      2.00000
     35       1.3083      2.00000
     36       1.3420      2.00000
     37       1.4802      2.00000
     38       1.5722      2.00000
     39       1.6216      2.00000
     40       1.6415      2.00000
     41       2.5028      2.00000
     42       2.5033      2.00000
     43       2.8485      2.00000
     44       2.8801      2.00000
     45       3.3021      2.00000
     46       3.3415      2.00000
     47       3.8839      2.00000
     48       3.9123      2.00000
     49       4.5011      2.00000
     50       4.7534      2.00000
     51       5.4220      2.00000
     52       5.7076      2.00000
     53       5.7160      2.00000
     54       6.0421      1.99976
     55       6.4090      0.00000
     56       6.6511      0.00000
     57       6.7124      0.00000
     58       7.2322      0.00000
     59       7.7501      0.00000
     60       7.8476      0.00000
     61       8.0580      0.00000
     62       8.5435      0.00000
     63       8.8772      0.00000
     64       9.0438      0.00000
     65       9.5651      0.00000
     66      10.1477      0.00000

 k-point    21 :       0.3077    0.3077   -0.0000
  band No.  band energies     occupation 
      1     -13.1320      2.00000
      2     -13.1188      2.00000
      3     -13.1103      2.00000
      4     -13.1010      2.00000
      5     -13.0843      2.00000
      6     -13.0719      2.00000
      7     -13.0617      2.00000
      8     -13.0526      2.00000
      9     -13.0368      2.00000
     10     -13.0116      2.00000
     11      -0.9112      2.00000
     12      -0.9089      2.00000
     13      -0.8291      2.00000
     14      -0.8223      2.00000
     15      -0.7296      2.00000
     16      -0.7198      2.00000
     17      -0.6042      2.00000
     18      -0.5163      2.00000
     19      -0.4669      2.00000
     20      -0.4041      2.00000
     21      -0.3014      2.00000
     22      -0.2514      2.00000
     23      -0.1116      2.00000
     24      -0.1048      2.00000
     25       0.0294      2.00000
     26       0.0765      2.00000
     27       0.1693      2.00000
     28       0.2429      2.00000
     29       0.3221      2.00000
     30       0.3594      2.00000
     31       1.0120      2.00000
     32       1.0369      2.00000
     33       1.2012      2.00000
     34       1.3271      2.00000
     35       1.3846      2.00000
     36       1.4081      2.00000
     37       1.4521      2.00000
     38       1.4601      2.00000
     39       1.5017      2.00000
     40       1.5968      2.00000
     41       2.3789      2.00000
     42       2.7428      2.00000
     43       3.1957      2.00000
     44       3.7759      2.00000
     45       3.9969      2.00000
     46       4.0024      2.00000
     47       4.3386      2.00000
     48       4.3620      2.00000
     49       4.4835      2.00000
     50       4.7824      2.00000
     51       4.7837      2.00000
     52       5.2179      2.00000
     53       5.3775      2.00000
     54       5.5141      2.00000
     55       6.0576      1.99877
     56       6.1565      1.33620
     57       6.7217      0.00000
     58       6.9578      0.00000
     59       7.2607      0.00000
     60       7.6722      0.00000
     61       8.0830      0.00000
     62       8.3282      0.00000
     63       8.5612      0.00000
     64       9.1659      0.00000
     65       9.5137      0.00000
     66       9.6710      0.00000


--------------------------------------------------------------------------------------------------------


 soft charge-density along one line, spin component           1
         0         1         2         3         4         5         6         7         8         9
 total charge-density along one line
 
 pseudopotential strength for first ion, spin component:           1
 12.201   0.000 -14.847   0.000   0.000   0.000  -0.004   0.000  -0.000   0.000  -0.000   0.000   0.004   0.000   0.000   0.000
-14.847   0.000  18.087   0.000  -0.000   0.000   0.004   0.000   0.000   0.000   0.000   0.000  -0.006   0.000  -0.000   0.000
  0.000   0.000  -0.000   0.000  -8.350   0.000  -0.000   0.000   0.000   0.000  10.004   0.000   0.000   0.000  -0.000   0.000
 -0.004   0.000   0.004   0.000  -0.000   0.000  -8.359   0.000   0.000   0.000   0.000   0.000  10.016   0.000  -0.000   0.000
 -0.000   0.000   0.000   0.000   0.000   0.000   0.000   0.000  -8.350   0.000  -0.000   0.000  -0.000   0.000  10.004   0.000
 -0.000   0.000   0.000   0.000  10.004   0.000   0.000   0.000  -0.000   0.000 -11.827   0.000  -0.000   0.000   0.000   0.000
  0.004   0.000  -0.006   0.000   0.000   0.000  10.016   0.000  -0.000   0.000  -0.000   0.000 -11.843   0.000   0.000   0.000
  0.000   0.000  -0.000   0.000  -0.000   0.000  -0.000   0.000  10.004   0.000   0.000   0.000   0.000   0.000 -11.827   0.000
 total augmentation occupancy for first ion, spin component:           1
  2.575   0.350   0.000   0.011  -0.000   0.000   0.001  -0.000
  0.350   0.075   0.000   0.008  -0.000  -0.000  -0.003   0.000
  0.000   0.000   2.131  -0.000  -0.000   0.249  -0.000  -0.000
  0.011   0.008  -0.000   2.112  -0.000  -0.000   0.254  -0.000
 -0.000  -0.000  -0.000  -0.000   2.131  -0.000  -0.000   0.249
  0.000  -0.000   0.249  -0.000  -0.000   0.032   0.000  -0.000
  0.001  -0.003  -0.000   0.254  -0.000   0.000   0.034  -0.000
 -0.000   0.000  -0.000  -0.000   0.249  -0.000  -0.000   0.032


------------------------ aborting loop because EDIFF is reached ----------------------------------------


    CHARGE:  cpu time    0.44: real time    0.44
    FORLOC:  cpu time    0.04: real time    0.04
    FORNL :  cpu time    3.65: real time    3.65
    STRESS:  cpu time    4.78: real time    4.79
    FORCOR:  cpu time    0.15: real time    0.15
    FORHAR:  cpu time    0.06: real time    0.06
    MIXING:  cpu time    0.00: real time    0.00
    OFIELD:  cpu time    0.00: real time    0.00

  FORCE on cell =-STRESS in cart. coord.  units (eV):
  Direction    XX          YY          ZZ          XY          YZ          ZX
  --------------------------------------------------------------------------------------
  Alpha Z   136.47153   136.47153   136.47153
  Ewald   21992.34102 21992.34141-24683.87972    -0.00009     0.00006    -0.00021
  Hartree 23762.03594 23762.03585-22810.96738    -0.00000     0.00000     0.00004
  E(xc)    -423.57972  -423.57973  -423.43339    -0.00000     0.00000     0.00000
  Local  -46998.01283-46998.01236 46250.19724    -0.00013    -0.00005     0.00010
  n-local   -44.53756   -58.78365   -51.16292     3.00457    -1.61678     5.25495
  augment    60.13214    60.13190    59.36099     0.00018    -0.00000     0.00000
  Kinetic  1536.36557  1496.28879  1502.75659     0.70263    -0.46921     1.73410
  Fock        0.00000     0.00000     0.00000     0.00000     0.00000     0.00000
  -------------------------------------------------------------------------------------
  Total      -5.94509    -5.94509   -20.65706     0.00000     0.00000     0.00000
  in kB     -26.77877   -26.77875   -93.04657     0.00000     0.00000     0.00000
  external pressure =      -48.87 kB  Pullay stress =        0.00 kB


 VOLUME and BASIS-vectors are now :
 -----------------------------------------------------------------------------
  energy-cutoff  :      520.00
  volume of cell :      355.70
      direct lattice vectors                 reciprocal lattice vectors
     2.592201318 -1.496607673  0.000000000     0.385772507  0.000000000  0.000000000
     0.000000000  2.993215347  0.000000000     0.192886253  0.334088892  0.000000000
    -0.000000000  0.000000000 45.842893802     0.000000000  0.000000000  0.021813632

  length of vectors
     2.993216030  2.993215347 45.842893802     0.385772507  0.385772595  0.021813632


 FORCES acting on ions
    electron-ion (+dipol)            ewald-force                    non-local-force                 convergence-correction
 -----------------------------------------------------------------------------------------------
   -.473E-03 0.823E-03 0.146E+04   -.344E-05 0.269E-05 -.146E+04   -.551E-17 -.867E-18 0.122E+01   0.980E-08 -.170E-07 -.984E-01
   0.588E-03 -.102E-02 0.114E+04   0.546E-04 -.945E-04 -.114E+04   -.216E-18 0.651E-18 0.574E-01   0.105E-08 -.199E-08 -.716E-01
   -.474E-03 0.820E-03 0.490E+03   -.354E-07 0.367E-07 -.490E+03   0.186E-20 -.136E-19 -.133E-02   -.270E-08 0.495E-08 0.181E-01
   0.588E-03 -.102E-02 0.164E+03   0.547E-04 -.948E-04 -.163E+03   0.788E-19 -.136E-19 -.163E-01   0.117E-07 -.189E-07 0.189E-01
   -.474E-03 0.820E-03 -.490E+03   0.317E-07 -.324E-07 0.490E+03   0.896E-21 0.136E-19 0.133E-02   0.247E-08 -.455E-08 -.185E-01
   0.588E-03 -.102E-02 -.816E+03   0.545E-04 -.944E-04 0.816E+03   0.491E-19 -.203E-19 -.891E-02   -.627E-08 0.104E-07 0.149E-01
   -.478E-03 0.824E-03 -.146E+04   0.345E-05 -.269E-05 0.146E+04   0.535E-17 0.867E-18 -.122E+01   0.112E-07 -.194E-07 0.984E-01
   -.154E-02 0.266E-02 0.816E+03   -.545E-04 0.944E-04 -.816E+03   -.438E-19 -.678E-20 0.891E-02   0.103E-07 -.174E-07 -.151E-01
   -.154E-02 0.266E-02 -.163E+03   -.547E-04 0.948E-04 0.164E+03   -.821E-19 -.136E-19 0.163E-01   -.322E-07 0.544E-07 -.194E-01
   -.154E-02 0.266E-02 -.114E+04   -.546E-04 0.945E-04 0.114E+04   0.260E-18 -.867E-18 -.574E-01   -.143E-08 0.266E-08 0.715E-01
   0.216E-04 -.375E-04 0.326E+03   -.182E-07 0.205E-07 -.326E+03   0.326E-20 0.000E+00 0.326E-02   -.567E-09 0.993E-09 -.154E-01
   0.217E-04 -.376E-04 -.107E-02   0.200E-08 -.222E-08 0.115E-01   -.229E-20 0.000E+00 0.000E+00   0.931E-10 -.161E-09 -.802E-04
   0.217E-04 -.375E-04 -.326E+03   0.162E-07 -.183E-07 0.326E+03   0.224E-20 0.000E+00 -.326E-02   0.564E-09 -.988E-09 0.153E-01
   0.637E-04 -.110E-03 0.435E+03   -.470E-04 0.814E-04 -.435E+03   0.238E-19 0.434E-18 -.592E-01   -.121E-09 0.526E-10 -.304E-01
   0.638E-04 -.110E-03 0.109E+03   -.471E-04 0.817E-04 -.109E+03   -.393E-19 -.542E-19 -.892E-02   0.106E-08 -.200E-08 0.749E-02
   0.637E-04 -.110E-03 -.218E+03   -.471E-04 0.815E-04 0.218E+03   -.362E-19 -.271E-19 0.484E-02   -.868E-09 0.158E-08 -.272E-02
   0.423E-04 -.592E-04 -.524E+03   -.242E-04 0.260E-04 0.524E+03   0.688E-17 -.347E-17 0.160E+00   0.544E-09 -.105E-08 0.329E-01
   -.190E-04 0.187E-04 0.524E+03   0.242E-04 -.260E-04 -.524E+03   -.601E-17 0.104E-16 -.160E+00   -.641E-09 0.122E-08 -.329E-01
   -.204E-04 0.353E-04 0.218E+03   0.471E-04 -.815E-04 -.218E+03   0.215E-19 0.136E-19 -.484E-02   0.851E-09 -.155E-08 0.263E-02
   -.204E-04 0.353E-04 -.109E+03   0.471E-04 -.817E-04 0.109E+03   0.356E-19 0.542E-19 0.892E-02   -.990E-09 0.188E-08 -.762E-02
   -.204E-04 0.353E-04 -.435E+03   0.470E-04 -.814E-04 0.435E+03   0.892E-19 -.434E-18 0.592E-01   0.452E-10 0.792E-10 0.304E-01
   0.495E-05 -.858E-05 0.135E-02   -.137E-09 0.132E-09 0.537E-02   -.161E-20 0.000E+00 0.325E-18   -.799E-11 0.138E-10 0.101E-03
   0.419E-05 -.755E-05 0.560E+03   0.555E-06 -.504E-06 -.560E+03   -.137E-16 0.139E-16 -.634E+00   -.502E-10 0.703E-10 -.333E-01
   0.196E-04 -.341E-04 0.362E+03   -.198E-05 0.362E-05 -.363E+03   -.137E-17 0.000E+00 0.205E+00   -.682E-10 0.850E-10 -.214E-01
   -.966E-05 0.167E-04 0.179E+03   0.231E-05 -.394E-05 -.179E+03   -.258E-17 0.173E-17 -.310E-01   0.916E-11 -.391E-10 -.102E-01
   0.450E-05 -.751E-05 -.560E+03   -.556E-06 0.505E-06 0.560E+03   0.136E-16 -.139E-16 0.634E+00   -.192E-10 0.500E-10 0.333E-01
   0.195E-04 -.337E-04 -.179E+03   -.231E-05 0.394E-05 0.179E+03   0.173E-17 -.173E-17 0.310E-01   -.272E-10 0.702E-10 0.103E-01
   -.979E-05 0.171E-04 -.362E+03   0.198E-05 -.362E-05 0.363E+03   0.835E-18 -.347E-17 -.205E+00   0.390E-10 -.346E-10 0.215E-01
 -----------------------------------------------------------------------------------------------
   -.449E-02 0.778E-02 -.558E+00   -.906E-14 -.484E-13 -.108E-11   -.548E-18 0.318E-17 -.167E-15   0.380E-08 -.658E-08 -.882E-03
 
 
 POSITION                                       TOTAL-FORCE (eV/Angst)
 -----------------------------------------------------------------------------------
     -0.00000      0.00000     12.68040        -0.000000     -0.000000      0.007068
      0.86407      1.49661     15.20457         0.000000      0.000000      0.001145
     -0.00000      0.00000     20.25323         0.000000      0.000000     -0.000914
      0.86407      1.49661     22.77604         0.000000     -0.000000     -0.007300
     -0.00000     -0.00000     27.81934        -0.000000     -0.000000      0.000914
      0.86407      1.49661     30.34382         0.000000     -0.000000     -0.000786
     -0.00000     -0.00000     35.39253         0.000000      0.000000     -0.007068
      1.72814     -0.00000     17.72888        -0.000000      0.000000      0.000786
      1.72814     -0.00000     25.29645         0.000000      0.000000      0.007300
      1.72814     -0.00000     32.86827        -0.000000     -0.000000     -0.001145
     -0.00000     -0.00000     16.46651        -0.000000      0.000000      0.010661
     -0.00000      0.00000     24.03627        -0.000000     -0.000000      0.000000
     -0.00000      0.00000     31.60624         0.000000     -0.000000     -0.010661
      1.72814     -0.00000     13.94293         0.000000      0.000000     -0.013253
      1.72814     -0.00000     21.51532         0.000000     -0.000000     -0.013950
      1.72814     -0.00000     29.08116        -0.000000     -0.000000      0.006123
      1.72814     -0.00000     36.69813        -0.000000      0.000000      0.003471
      0.86407      1.49661     11.37481         0.000000     -0.000000     -0.003471
      0.86407      1.49661     18.99150         0.000000      0.000000     -0.006123
      0.86407      1.49661     26.55724        -0.000000      0.000000      0.013950
      0.86407      1.49661     34.12992        -0.000000     -0.000000      0.013253
     -0.00000      0.00000      1.11488        -0.000000     -0.000000     -0.000000
     -0.00000      0.00000      8.67869        -0.000000      0.000000      0.001275
      1.72814     -0.00000      6.09068        -0.000000     -0.000000      0.011117
      0.86407      1.49661      3.59077        -0.000000     -0.000000      0.012756
     -0.00000      0.00000     39.39429         0.000000     -0.000000     -0.001275
      1.72814     -0.00000     44.48184         0.000000      0.000000     -0.012756
      0.86407      1.49661     41.98205         0.000000      0.000000     -0.011117
 -----------------------------------------------------------------------------------
    total drift:                               -0.004489      0.007776     -0.558481


--------------------------------------------------------------------------------------------------------



  FREE ENERGIE OF THE ION-ELECTRON SYSTEM (eV)
  ---------------------------------------------------
  free  energy   TOTEN  =      -145.00828995 eV

  energy  without entropy=     -145.00325049  energy(sigma->0) =     -145.00577022
 
 d Force = 0.2341983E-03[ 0.258E-04, 0.443E-03]  d Energy = 0.2315157E-03 0.268E-05
 d Force =-0.2315843E+02[-0.232E+02,-0.232E+02]  d Ewald  =-0.2315842E+02-0.722E-06


--------------------------------------------------------------------------------------------------------


    POTLOK:  cpu time    0.22: real time    0.22


--------------------------------------------------------------------------------------------------------


 Conjugate gradient step on ions:
 trial-energy change:   -0.000232  1 .order   -0.000234   -0.000443   -0.000026
  (g-gl).g = 0.407E-03      g.g   = 0.364E-03  gl.gl    = 0.134E-02
 g(Force)  = 0.364E-03   g(Stress)= 0.000E+00 ortho     =-0.570E-04
 gamma     =   0.30471
 trial     =   1.27843
 opt step  =   1.35767  (harmonic =   1.35767) maximal distance =0.00310030
 next E    =  -145.008293   (d E  =  -0.00023)


--------------------------------------------------------------------------------------------------------


  
 reached required accuracy - stopping structural energy minimisation
     LOOP+:  cpu time   43.44: real time   43.49
    4ORBIT:  cpu time    0.00: real time    0.00

 total amount of memory used by VASP on root node   158986. kBytes
========================================================================

   base      :      30000. kBytes
   nonl-proj :      16870. kBytes
   fftplans  :      60348. kBytes
   grid      :      24192. kBytes
   one-center:         56. kBytes
   wavefun   :      27520. kBytes
 
  
  
 General timing and accounting informations for this job:
 ========================================================
  
                  Total CPU time used (sec):     1477.432
                            User time (sec):     1458.938
                          System time (sec):       18.494
                         Elapsed time (sec):     1479.229
  
                   Maximum memory used (kb):      265900.
                   Average memory used (kb):           0.
  
                          Minor page faults:       391437
                          Major page faults:            0
                 Voluntary context switches:          269
