  25  25   0   0
  0.1389482E+02  0.3004406E-09  0.3004406E-09  0.4443704E-08  0.5000000E-15
  1.000000000000000E-004
  CAR 
 Al110                                   
     11.92538628    -19.76315572  301     -0.82369760      1.00000000
    -19.763  0.0000E+00  0.0000E+00
    -19.658  0.0000E+00  0.0000E+00
    -19.552  0.0000E+00  0.0000E+00
    -19.446  0.0000E+00  0.0000E+00
    -19.341  0.0000E+00  0.0000E+00
    -19.235  0.0000E+00  0.0000E+00
    -19.129  0.0000E+00  0.0000E+00
    -19.024  0.0000E+00  0.0000E+00
    -18.918  0.0000E+00  0.0000E+00
    -18.812  0.0000E+00  0.0000E+00
    -18.707  0.0000E+00  0.0000E+00
    -18.601  0.1971E-17  0.2082E-18
    -18.496  0.6002E-09  0.6340E-10
    -18.390  0.3403E-04  0.3595E-05
    -18.284  0.1451E-02  0.1569E-03
    -18.179  0.3270E-02  0.5023E-03
    -18.073  0.5738E-02  0.1108E-02
    -17.967  0.7515E-02  0.1902E-02
    -17.862  0.9197E-02  0.2874E-02
    -17.756  0.1022E-01  0.3953E-02
    -17.651  0.1493E-01  0.5531E-02
    -17.545  0.1717E-01  0.7344E-02
    -17.439  0.1970E-01  0.9426E-02
    -17.334  0.2547E-01  0.1212E-01
    -17.228  0.3535E-01  0.1585E-01
    -17.122  0.4937E-01  0.2107E-01
    -17.017  0.6826E-01  0.2828E-01
    -16.911  0.8178E-01  0.3691E-01
    -16.806  0.5550E-01  0.4278E-01
    -16.700  0.1130E-01  0.4397E-01
    -16.594  0.2939E-03  0.4400E-01
    -16.489  0.1545E-02  0.4416E-01
    -16.383  0.6810E-02  0.4488E-01
    -16.277  0.9438E-02  0.4588E-01
    -16.172  0.1336E-01  0.4729E-01
    -16.066  0.2154E-01  0.4957E-01
    -15.961  0.1609E-01  0.5127E-01
    -15.855  0.6844E-02  0.5199E-01
    -15.749  0.1086E-03  0.5200E-01
    -15.644  0.2782E-08  0.5200E-01
    -15.538  0.2023E-16  0.5200E-01
    -15.432  0.0000E+00  0.5200E-01
    -15.327  0.0000E+00  0.5200E-01
    -15.221  0.0000E+00  0.5200E-01
    -15.116  0.0000E+00  0.5200E-01
    -15.010  0.0000E+00  0.5200E-01
    -14.904  0.0000E+00  0.5200E-01
    -14.799  0.0000E+00  0.5200E-01
    -14.693  0.0000E+00  0.5200E-01
    -14.587  0.0000E+00  0.5200E-01
    -14.482  0.0000E+00  0.5200E-01
    -14.376  0.0000E+00  0.5200E-01
    -14.270  0.0000E+00  0.5200E-01
    -14.165  0.0000E+00  0.5200E-01
    -14.059  0.0000E+00  0.5200E-01
    -13.954  0.0000E+00  0.5200E-01
    -13.848  0.0000E+00  0.5200E-01
    -13.742  0.0000E+00  0.5200E-01
    -13.637  0.0000E+00  0.5200E-01
    -13.531  0.0000E+00  0.5200E-01
    -13.425  0.0000E+00  0.5200E-01
    -13.320  0.0000E+00  0.5200E-01
    -13.214  0.0000E+00  0.5200E-01
    -13.109  0.0000E+00  0.5200E-01
    -13.003  0.0000E+00  0.5200E-01
    -12.897  0.0000E+00  0.5200E-01
    -12.792  0.0000E+00  0.5200E-01
    -12.686  0.0000E+00  0.5200E-01
    -12.580  0.0000E+00  0.5200E-01
    -12.475  0.0000E+00  0.5200E-01
    -12.369  0.0000E+00  0.5200E-01
    -12.264  0.0000E+00  0.5200E-01
    -12.158  0.0000E+00  0.5200E-01
    -12.052  0.0000E+00  0.5200E-01
    -11.947  0.0000E+00  0.5200E-01
    -11.841  0.0000E+00  0.5200E-01
    -11.735  0.0000E+00  0.5200E-01
    -11.630  0.0000E+00  0.5200E-01
    -11.524  0.0000E+00  0.5200E-01
    -11.419  0.0000E+00  0.5200E-01
    -11.313  0.0000E+00  0.5200E-01
    -11.207  0.0000E+00  0.5200E-01
    -11.102  0.0000E+00  0.5200E-01
    -10.996  0.0000E+00  0.5200E-01
    -10.890  0.0000E+00  0.5200E-01
    -10.785  0.0000E+00  0.5200E-01
    -10.679  0.0000E+00  0.5200E-01
    -10.573  0.0000E+00  0.5200E-01
    -10.468  0.0000E+00  0.5200E-01
    -10.362  0.0000E+00  0.5200E-01
    -10.257  0.0000E+00  0.5200E-01
    -10.151  0.0000E+00  0.5200E-01
    -10.045  0.0000E+00  0.5200E-01
     -9.940  0.0000E+00  0.5200E-01
     -9.834  0.0000E+00  0.5200E-01
     -9.728  0.0000E+00  0.5200E-01
     -9.623  0.0000E+00  0.5200E-01
     -9.517  0.0000E+00  0.5200E-01
     -9.412  0.0000E+00  0.5200E-01
     -9.306  0.0000E+00  0.5200E-01
     -9.200  0.0000E+00  0.5200E-01
     -9.095  0.0000E+00  0.5200E-01
     -8.989  0.0000E+00  0.5200E-01
     -8.883  0.0000E+00  0.5200E-01
     -8.778  0.0000E+00  0.5200E-01
     -8.672  0.0000E+00  0.5200E-01
     -8.567  0.0000E+00  0.5200E-01
     -8.461  0.0000E+00  0.5200E-01
     -8.355  0.0000E+00  0.5200E-01
     -8.250  0.0000E+00  0.5200E-01
     -8.144  0.0000E+00  0.5200E-01
     -8.038  0.0000E+00  0.5200E-01
     -7.933  0.0000E+00  0.5200E-01
     -7.827  0.0000E+00  0.5200E-01
     -7.722  0.0000E+00  0.5200E-01
     -7.616  0.0000E+00  0.5200E-01
     -7.510  0.0000E+00  0.5200E-01
     -7.405  0.0000E+00  0.5200E-01
     -7.299  0.0000E+00  0.5200E-01
     -7.193  0.0000E+00  0.5200E-01
     -7.088  0.0000E+00  0.5200E-01
     -6.982  0.0000E+00  0.5200E-01
     -6.876  0.0000E+00  0.5200E-01
     -6.771  0.0000E+00  0.5200E-01
     -6.665  0.0000E+00  0.5200E-01
     -6.560  0.0000E+00  0.5200E-01
     -6.454  0.0000E+00  0.5200E-01
     -6.348  0.0000E+00  0.5200E-01
     -6.243  0.0000E+00  0.5200E-01
     -6.137  0.0000E+00  0.5200E-01
     -6.031  0.0000E+00  0.5200E-01
     -5.926  0.7949E-17  0.5200E-01
     -5.820  0.1921E-08  0.5200E-01
     -5.715  0.9623E-04  0.5201E-01
     -5.609  0.3674E-02  0.5240E-01
     -5.503  0.5989E-02  0.5303E-01
     -5.398  0.7130E-02  0.5378E-01
     -5.292  0.1086E-01  0.5493E-01
     -5.186  0.1296E-01  0.5630E-01
     -5.081  0.2179E-01  0.5860E-01
     -4.975  0.2616E-01  0.6137E-01
     -4.870  0.3782E-01  0.6536E-01
     -4.764  0.5435E-01  0.7110E-01
     -4.658  0.5031E-01  0.7641E-01
     -4.553  0.3763E-01  0.8039E-01
     -4.447  0.2817E-01  0.8337E-01
     -4.341  0.2608E-01  0.8612E-01
     -4.236  0.1574E-01  0.8778E-01
     -4.130  0.1210E-01  0.8906E-01
     -4.025  0.1425E-01  0.9057E-01
     -3.919  0.1699E-01  0.9236E-01
     -3.813  0.1796E-01  0.9426E-01
     -3.708  0.2158E-01  0.9654E-01
     -3.602  0.2117E-01  0.9877E-01
     -3.496  0.2816E-01  0.1017E+00
     -3.391  0.2393E-01  0.1043E+00
     -3.285  0.2229E-01  0.1066E+00
     -3.179  0.2585E-01  0.1094E+00
     -3.074  0.2464E-01  0.1120E+00
     -2.968  0.2955E-01  0.1151E+00
     -2.863  0.2764E-01  0.1180E+00
     -2.757  0.2681E-01  0.1208E+00
     -2.651  0.4086E-01  0.1252E+00
     -2.546  0.5014E-01  0.1304E+00
     -2.440  0.4957E-01  0.1357E+00
     -2.334  0.5282E-01  0.1413E+00
     -2.229  0.5936E-01  0.1475E+00
     -2.123  0.5533E-01  0.1534E+00
     -2.018  0.7017E-01  0.1608E+00
     -1.912  0.7809E-01  0.1690E+00
     -1.806  0.6616E-01  0.1760E+00
     -1.701  0.4609E-01  0.1809E+00
     -1.595  0.3809E-01  0.1849E+00
     -1.489  0.3175E-01  0.1883E+00
     -1.384  0.2510E-01  0.1909E+00
     -1.278  0.1681E-01  0.1927E+00
     -1.173  0.1001E-01  0.1938E+00
     -1.067  0.1004E-01  0.1948E+00
     -0.961  0.1560E-01  0.1965E+00
     -0.856  0.5649E-01  0.2024E+00
     -0.750  0.3200E-01  0.2058E+00
     -0.644  0.1068E-01  0.2069E+00
     -0.539  0.5676E-02  0.2075E+00
     -0.433  0.3537E-02  0.2079E+00
     -0.328  0.8237E-03  0.2080E+00
     -0.222  0.2442E-05  0.2080E+00
     -0.116  0.2741E-11  0.2080E+00
     -0.011  0.0000E+00  0.2080E+00
      0.095  0.0000E+00  0.2080E+00
      0.201  0.0000E+00  0.2080E+00
      0.306  0.0000E+00  0.2080E+00
      0.412  0.0000E+00  0.2080E+00
      0.518  0.0000E+00  0.2080E+00
      0.623  0.0000E+00  0.2080E+00
      0.729  0.0000E+00  0.2080E+00
      0.834  0.0000E+00  0.2080E+00
      0.940  0.0000E+00  0.2080E+00
      1.046  0.0000E+00  0.2080E+00
      1.151  0.0000E+00  0.2080E+00
      1.257  0.0000E+00  0.2080E+00
      1.363  0.0000E+00  0.2080E+00
      1.468  0.0000E+00  0.2080E+00
      1.574  0.0000E+00  0.2080E+00
      1.679  0.0000E+00  0.2080E+00
      1.785  0.0000E+00  0.2080E+00
      1.891  0.0000E+00  0.2080E+00
      1.996  0.0000E+00  0.2080E+00
      2.102  0.0000E+00  0.2080E+00
      2.208  0.0000E+00  0.2080E+00
      2.313  0.0000E+00  0.2080E+00
      2.419  0.0000E+00  0.2080E+00
      2.524  0.0000E+00  0.2080E+00
      2.630  0.0000E+00  0.2080E+00
      2.736  0.0000E+00  0.2080E+00
      2.841  0.0000E+00  0.2080E+00
      2.947  0.0000E+00  0.2080E+00
      3.053  0.0000E+00  0.2080E+00
      3.158  0.0000E+00  0.2080E+00
      3.264  0.0000E+00  0.2080E+00
      3.369  0.1868E-12  0.2080E+00
      3.475  0.5656E-06  0.2080E+00
      3.581  0.4446E-03  0.2080E+00
      3.686  0.7338E-03  0.2081E+00
      3.792  0.5055E-05  0.2081E+00
      3.898  0.4544E-03  0.2082E+00
      4.003  0.1424E-02  0.2083E+00
      4.109  0.4868E-03  0.2084E+00
      4.215  0.4201E-04  0.2084E+00
      4.320  0.1372E-02  0.2085E+00
      4.426  0.9467E-03  0.2086E+00
      4.531  0.9182E-05  0.2086E+00
      4.637  0.1211E-02  0.2088E+00
      4.743  0.2327E-02  0.2090E+00
      4.848  0.1467E-02  0.2092E+00
      4.954  0.3163E-02  0.2095E+00
      5.060  0.1981E-03  0.2095E+00
      5.165  0.2100E-02  0.2097E+00
      5.271  0.2591E-02  0.2100E+00
      5.376  0.2529E-02  0.2103E+00
      5.482  0.1971E-02  0.2105E+00
      5.588  0.2598E-02  0.2108E+00
      5.693  0.3494E-02  0.2111E+00
      5.799  0.1355E-02  0.2113E+00
      5.905  0.3070E-02  0.2116E+00
      6.010  0.3023E-02  0.2119E+00
      6.116  0.6258E-02  0.2126E+00
      6.221  0.6526E-02  0.2133E+00
      6.327  0.3665E-02  0.2136E+00
      6.433  0.5507E-02  0.2142E+00
      6.538  0.7283E-02  0.2150E+00
      6.644  0.6770E-02  0.2157E+00
      6.750  0.1327E-01  0.2171E+00
      6.855  0.6242E-02  0.2178E+00
      6.961  0.1019E-01  0.2189E+00
      7.066  0.9128E-02  0.2198E+00
      7.172  0.9723E-02  0.2208E+00
      7.278  0.9173E-02  0.2218E+00
      7.383  0.8508E-02  0.2227E+00
      7.489  0.1008E-01  0.2238E+00
      7.595  0.1432E-01  0.2253E+00
      7.700  0.1340E-01  0.2267E+00
      7.806  0.1063E-01  0.2278E+00
      7.912  0.1058E-01  0.2289E+00
      8.017  0.1573E-01  0.2306E+00
      8.123  0.1240E-01  0.2319E+00
      8.228  0.1271E-01  0.2333E+00
      8.334  0.2330E-01  0.2357E+00
      8.440  0.1396E-01  0.2372E+00
      8.545  0.2573E-01  0.2399E+00
      8.651  0.2212E-01  0.2422E+00
      8.757  0.2092E-01  0.2445E+00
      8.862  0.2439E-01  0.2470E+00
      8.968  0.2594E-01  0.2498E+00
      9.073  0.1207E-01  0.2510E+00
      9.179  0.1482E-01  0.2526E+00
      9.285  0.8810E-02  0.2535E+00
      9.390  0.9619E-02  0.2546E+00
      9.496  0.1129E-01  0.2558E+00
      9.602  0.1204E-01  0.2570E+00
      9.707  0.1261E-01  0.2584E+00
      9.813  0.4425E-02  0.2588E+00
      9.918  0.2926E-02  0.2591E+00
     10.024  0.1218E-02  0.2593E+00
     10.130  0.2940E-02  0.2596E+00
     10.235  0.2860E-02  0.2599E+00
     10.341  0.1816E-04  0.2599E+00
     10.447  0.1640E-03  0.2599E+00
     10.552  0.9854E-03  0.2600E+00
     10.658  0.3389E-04  0.2600E+00
     10.763  0.6002E-09  0.2600E+00
     10.869  0.1971E-17  0.2600E+00
     10.975  0.0000E+00  0.2600E+00
     11.080  0.0000E+00  0.2600E+00
     11.186  0.0000E+00  0.2600E+00
     11.292  0.0000E+00  0.2600E+00
     11.397  0.0000E+00  0.2600E+00
     11.503  0.0000E+00  0.2600E+00
     11.609  0.0000E+00  0.2600E+00
     11.714  0.0000E+00  0.2600E+00
     11.820  0.0000E+00  0.2600E+00
     11.925  0.0000E+00  0.2600E+00
