 vasp.5.4.4.18Apr17-6-g9f103f2a35 (build Nov 15 2019 10:10:58) complex          
  
 executed on             LinuxIFC date 2024.06.26  20:14:38
 running on   20 total cores
 distrk:  each k-point on   20 cores,    1 groups
 distr:  one band on NCORES_PER_BAND=   4 cores,    5 groups


--------------------------------------------------------------------------------------------------------


 INCAR:
 POTCAR:    PAW_PBE Mg 13Apr2007                  
 POTCAR:    PAW_PBE O 08Apr2002                   
 POTCAR:    PAW_PBE Mg 13Apr2007                  
   VRHFIN =Mg: s2p0                                                             
   LEXCH  = PE                                                                  
   EATOM  =    23.0369 eV,    1.6932 Ry                                         
                                                                                
   TITEL  = PAW_PBE Mg 13Apr2007                                                
   LULTRA =        F    use ultrasoft PP ?                                      
   IUNSCR =        1    unscreen: 0-lin 1-nonlin 2-no                           
   RPACOR =    1.500    partial core radius                                     
   POMASS =   24.305; ZVAL   =    2.000    mass and valenz                      
   RCORE  =    2.000    outmost cutoff radius                                   
   RWIGS  =    2.880; RWIGS  =    1.524    wigner-seitz radius (au A)           
   ENMAX  =  200.000; ENMIN  =  100.000 eV                                      
   RCLOC  =    1.506    cutoff for local pot                                    
   LCOR   =        T    correct aug charges                                     
   LPAW   =        T    paw PP                                                  
   EAUG   =  454.734                                                            
   DEXC   =    0.000                                                            
   RMAX   =    2.045    core radius for proj-oper                               
   RAUG   =    1.300    factor for augmentation sphere                          
   RDEP   =    2.025    radius for radial grids                                 
   RDEPT  =    1.942    core radius for aug-charge                              
                                                                                
   Atomic configuration                                                         
    6 entries                                                                   
     n  l   j            E        occ.                                          
     1  0  0.50     -1259.6230   2.0000                                         
     2  0  0.50       -79.8442   2.0000                                         
     2  1  1.50       -46.6121   6.0000                                         
     3  0  0.50        -4.7055   2.0000                                         
     3  1  0.50        -1.3660   0.0000                                         
     3  2  1.50        -1.3606   0.0000                                         
   Description                                                                  
     l       E           TYP  RCUT    TYP  RCUT                                 
     0     -4.7054661     23  2.000                                             
     0     27.2116520     23  2.000                                             
     1      1.3605826     23  2.000                                             
     1     27.2116520     23  2.000                                             
     2     -1.3605826     23  2.000                                             
  local pseudopotential read in
  partial core-charges read in
  partial kinetic energy density read in
  atomic valenz-charges read in
  non local Contribution for L=           0  read in
    real space projection operators read in
  non local Contribution for L=           0  read in
    real space projection operators read in
  non local Contribution for L=           1  read in
    real space projection operators read in
  non local Contribution for L=           1  read in
    real space projection operators read in
  non local Contribution for L=           2  read in
    real space projection operators read in
    PAW grid and wavefunctions read in
 
   number of l-projection  operators is LMAX  =           5
   number of lm-projection operators is LMMAX =          13
 
 POTCAR:    PAW_PBE O 08Apr2002                   
   VRHFIN =O: s2p4                                                              
   LEXCH  = PE                                                                  
   EATOM  =   432.3788 eV,   31.7789 Ry                                         
                                                                                
   TITEL  = PAW_PBE O 08Apr2002                                                 
   LULTRA =        F    use ultrasoft PP ?                                      
   IUNSCR =        1    unscreen: 0-lin 1-nonlin 2-no                           
   RPACOR =    1.200    partial core radius                                     
   POMASS =   16.000; ZVAL   =    6.000    mass and valenz                      
   RCORE  =    1.520    outmost cutoff radius                                   
   RWIGS  =    1.550; RWIGS  =    0.820    wigner-seitz radius (au A)           
   ENMAX  =  400.000; ENMIN  =  300.000 eV                                      
   ICORE  =        2    local potential                                         
   LCOR   =        T    correct aug charges                                     
   LPAW   =        T    paw PP                                                  
   EAUG   =  605.392                                                            
   DEXC   =    0.000                                                            
   RMAX   =    1.553    core radius for proj-oper                               
   RAUG   =    1.300    factor for augmentation sphere                          
   RDEP   =    1.550    radius for radial grids                                 
   RDEPT  =    1.329    core radius for aug-charge                              
                                                                                
   Atomic configuration                                                         
    4 entries                                                                   
     n  l   j            E        occ.                                          
     1  0  0.50      -514.6923   2.0000                                         
     2  0  0.50       -23.9615   2.0000                                         
     2  1  0.50        -9.0305   4.0000                                         
     3  2  1.50        -9.5241   0.0000                                         
   Description                                                                  
     l       E           TYP  RCUT    TYP  RCUT                                 
     0    -23.9615318     23  1.200                                             
     0     -9.5240782     23  1.200                                             
     1     -9.0304911     23  1.520                                             
     1      8.1634956     23  1.520                                             
     2     -9.5240782      7  1.500                                             
  local pseudopotential read in
  partial core-charges read in
  partial kinetic energy density read in
  kinetic energy density of atom read in
  atomic valenz-charges read in
  non local Contribution for L=           0  read in
    real space projection operators read in
  non local Contribution for L=           0  read in
    real space projection operators read in
  non local Contribution for L=           1  read in
    real space projection operators read in
  non local Contribution for L=           1  read in
    real space projection operators read in
    PAW grid and wavefunctions read in
 
   number of l-projection  operators is LMAX  =           4
   number of lm-projection operators is LMMAX =           8
 
 Optimization of the real space projectors (new method)

 maximal supplied QI-value         = 18.90
 optimisation between [QCUT,QGAM] = [ 10.77, 27.02] = [ 32.49,204.49] Ry 
 Optimized for a Real-space Cutoff    1.14 Angstroem

   l    n(q)    QCUT    max X(q) W(low)/X(q) W(high)/X(q)  e(spline) 
   0      9    10.771    28.265    0.55E-04    0.11E-03    0.18E-06
   0      9    10.771    10.429    0.35E-04    0.89E-04    0.15E-06
   1      9    10.771    13.073    0.36E-03    0.68E-04    0.34E-06
   1      9    10.771     9.625    0.30E-03    0.60E-04    0.28E-06
   2      8    10.771     4.652    0.10E-03    0.16E-03    0.22E-06
 Optimization of the real space projectors (new method)

 maximal supplied QI-value         = 24.76
 optimisation between [QCUT,QGAM] = [ 10.64, 26.98] = [ 31.73,203.89] Ry 
 Optimized for a Real-space Cutoff    0.98 Angstroem

   l    n(q)    QCUT    max X(q) W(low)/X(q) W(high)/X(q)  e(spline) 
   0      8    10.645    20.381    0.22E-03    0.11E-04    0.15E-06
   0      8    10.645    15.268    0.23E-03    0.14E-04    0.16E-06
   1      7    10.645     5.964    0.39E-03    0.37E-03    0.76E-07
   1      7    10.645     5.382    0.33E-03    0.32E-03    0.66E-07
  PAW_PBE Mg 13Apr2007                  :
 energy of atom  1       EATOM=  -23.0369
 kinetic energy error for atom=    0.0001 (will be added to EATOM!!)
  PAW_PBE O 08Apr2002                   :
 energy of atom  2       EATOM= -432.3788
 kinetic energy error for atom=    0.0389 (will be added to EATOM!!)
 
 
 POSCAR: MgO25                                   
  positions in direct lattice
  No initial velocities read in
 exchange correlation table for  LEXCH =        8
   RHO(1)=    0.500       N(1)  =     2000
   RHO(2)=  100.500       N(2)  =     4000

 VTST: version 3.2, (02/03/18)

 CHAIN: initializing optimizer
 
 OPT: Using VASP Conjugate-Gradient optimizer
 CHAIN: Read ICHAIN            0
 
 POSCAR: MgO25                                   
  positions in direct lattice
  No initial velocities read in
 


--------------------------------------------------------------------------------------------------------


 ion  position               nearest neighbor table
   1  0.000  0.000  0.105-  18 2.12  22 2.12  22 2.12  18 2.12  18 2.12  22 2.12   9 3.00   9 3.00
                             9 3.00   2 3.00   2 3.00   2 3.00
   2  0.333  0.667  0.161-  14 2.12  18 2.12  18 2.12  14 2.12  14 2.12  18 2.12  10 3.00   1 3.00
                            10 3.00   1 3.00   1 3.00  10 3.00
   3  0.000  0.000  0.271-  23 2.12  19 2.12  23 2.12  19 2.12  23 2.12  19 2.12  10 3.00  10 3.00
                            10 3.00   4 3.00   4 3.00   4 3.00
   4  0.333  0.667  0.326-  15 2.12  19 2.12  19 2.12  15 2.12  15 2.12  19 2.12  11 3.00  11 3.00
                            11 3.00   3 3.00   3 3.00   3 3.00
   5  0.000  0.000  0.437-  20 2.12  24 2.12  20 2.12  24 2.12  20 2.12  24 2.12   6 3.00  11 3.00
                             6 3.00  11 3.00   6 3.00  11 3.00
   6  0.333  0.667  0.492-  16 2.12  20 2.12  20 2.12  16 2.12  16 2.12  20 2.12  12 3.00  12 3.00
                            12 3.00   5 3.00   5 3.00   5 3.00
   7  0.000  0.000  0.602-  21 2.12  25 2.12  25 2.12  21 2.12  21 2.12  25 2.12   8 3.00  12 3.00
                             8 3.00  12 3.00   8 3.00  12 3.00
   8  0.333  0.667  0.657-  17 2.12  21 2.12  21 2.12  17 2.12  17 2.12  21 2.12   7 3.00   7 3.00
                             7 3.00
   9  0.667  0.333  0.050-  22 2.12  22 2.12  22 2.12  13 2.12  13 2.12  13 2.12   1 3.00   1 3.00
                             1 3.00
  10  0.667  0.333  0.216-  23 2.12  23 2.12  23 2.12  14 2.12  14 2.12  14 2.12   3 3.00   3 3.00
                             3 3.00   2 3.00   2 3.00   2 3.00
  11  0.667  0.333  0.381-  15 2.12  15 2.12  15 2.12  24 2.12  24 2.12  24 2.12   4 3.00   4 3.00
                             4 3.00   5 3.00   5 3.00   5 3.00
  12  0.667  0.333  0.547-  16 2.12  16 2.12  16 2.12  25 2.12  25 2.12  25 2.12   6 3.00   6 3.00
                             6 3.00   7 3.00   7 3.00   7 3.00
  13  0.000  0.000  0.023-   9 2.12   9 2.12   9 2.12
  14  0.000  0.000  0.188-  10 2.12   2 2.12  10 2.12   2 2.12  10 2.12   2 2.12
  15  0.000  0.000  0.354-  11 2.12  11 2.12  11 2.12   4 2.12   4 2.12   4 2.12
  16  0.000  0.000  0.519-  12 2.12  12 2.12  12 2.12   6 2.12   6 2.12   6 2.12
  17  0.000  0.000  0.685-   8 2.12   8 2.12   8 2.12
  18  0.667  0.333  0.133-   1 2.12   2 2.12   2 2.12   1 2.12   1 2.12   2 2.12
  19  0.667  0.333  0.299-   3 2.12   4 2.12   4 2.12   3 2.12   3 2.12   4 2.12
  20  0.667  0.333  0.464-   5 2.12   6 2.12   6 2.12   5 2.12   5 2.12   6 2.12
  21  0.667  0.333  0.630-   7 2.12   8 2.12   8 2.12   7 2.12   7 2.12   8 2.12
  22  0.333  0.667  0.078-   9 2.12   9 2.12   9 2.12   1 2.12   1 2.12   1 2.12
  23  0.333  0.667  0.243-  10 2.12  10 2.12  10 2.12   3 2.12   3 2.12   3 2.12
  24  0.333  0.667  0.409-   5 2.12  11 2.12  11 2.12   5 2.12   5 2.12  11 2.12
  25  0.333  0.667  0.575-   7 2.12  12 2.12  12 2.12   7 2.12   7 2.12  12 2.12
 
  LATTYP: Found a hexagonal cell.
 ALAT       =     3.0044062036
 C/A-ratio  =    14.7906237407
  
  Lattice vectors:
  
 A1 = (   2.1244360000,  -2.1244350000,   0.0000000000)
 A2 = (   0.0000000000,   2.1244360000,  -2.1244360000)
 A3 = (  25.6557380000,  25.6557380000,  25.6557380000)


Analysis of symmetry for initial positions (statically):
=====================================================================
 Subroutine PRICEL returns:
 Original cell was already a primitive cell.
 

 Routine SETGRP: Setting up the symmetry group for a 
 hexagonal supercell.


 Subroutine GETGRP returns: Found 12 space group operations
 (whereof  6 operations were pure point group operations)
 out of a pool of 24 trial point group operations.


The static configuration has the point symmetry C_3v.
 The point group associated with its full space group is D_3d.


Analysis of symmetry for dynamics (positions and initial velocities):
=====================================================================
 Subroutine PRICEL returns:
 Original cell was already a primitive cell.
 

 Routine SETGRP: Setting up the symmetry group for a 
 hexagonal supercell.


 Subroutine GETGRP returns: Found 12 space group operations
 (whereof  6 operations were pure point group operations)
 out of a pool of 24 trial point group operations.


The dynamic configuration has the point symmetry C_3v.
 The point group associated with its full space group is D_3d.


Analysis of constrained symmetry for selective dynamics:
=====================================================================
 Subroutine PRICEL returns:
 Original cell was already a primitive cell.
 

 Routine SETGRP: Setting up the symmetry group for a 
 hexagonal supercell.


 Subroutine GETGRP returns: Found  6 space group operations
 (whereof  6 operations were pure point group operations)
 out of a pool of 24 trial point group operations.


The constrained configuration has the point symmetry C_3v.


 Subroutine INISYM returns: Found  6 space group operations
 (whereof  6 operations are pure point group operations),
 and found     1 'primitive' translations

 
 
 KPOINTS: K-Spacing Value to Generate K-Mesh: 0.02

Automatic generation of k-mesh.
Space group operators:
 irot       det(A)        alpha          n_x          n_y          n_z        tau_x        tau_y        tau_z
    1     1.000000     0.000000     1.000000     0.000000     0.000000     0.000000     0.000000     0.000000
    2     1.000000   120.000000    -0.577350    -0.577350    -0.577350     0.000000     0.000000     0.000000
    3     1.000000   120.000000     0.577350     0.577350     0.577350     0.000000     0.000000     0.000000
    4    -1.000000   180.000000     0.707107    -0.707107    -0.000000     0.000000     0.000000     0.000000
    5    -1.000000   180.000000    -0.000000     0.707107    -0.707107     0.000000     0.000000     0.000000
    6    -1.000000   180.000000    -0.707107    -0.000000     0.707107     0.000000     0.000000     0.000000
 
 Subroutine IBZKPT returns following result:
 ===========================================
 
 Found     20 irreducible k-points:
 
 Following reciprocal coordinates:
            Coordinates               Weight
  0.062500  0.062500  0.000000     48.000000
  0.187500  0.062500  0.000000     96.000000
  0.312500  0.062500  0.000000     96.000000
  0.437500  0.062500 -0.000000     96.000000
 -0.437500  0.062500 -0.000000     96.000000
 -0.312500  0.062500 -0.000000     96.000000
 -0.187500  0.062500  0.000000     96.000000
 -0.062500  0.062500  0.000000     48.000000
  0.187500  0.187500  0.000000     48.000000
  0.312500  0.187500  0.000000     96.000000
  0.437500  0.187500 -0.000000     96.000000
 -0.437500  0.187500 -0.000000     96.000000
 -0.312500  0.187500  0.000000     96.000000
 -0.187500  0.187500  0.000000     48.000000
  0.312500  0.312500  0.000000     48.000000
  0.437500  0.312500  0.000000     96.000000
 -0.437500  0.312500 -0.000000     96.000000
 -0.312500  0.312500  0.000000     48.000000
  0.437500  0.437500  0.000000     48.000000
 -0.437500  0.437500 -0.000000     48.000000
 
 Following cartesian coordinates:
            Coordinates               Weight
  0.029420  0.000000 -0.029420     48.000000
  0.068646 -0.019613 -0.049033     96.000000
  0.107872 -0.039226 -0.068646     96.000000
  0.147098 -0.058839 -0.088259     96.000000
 -0.127485  0.078452  0.049033     96.000000
 -0.088259  0.058839  0.029420     96.000000
 -0.049033  0.039226  0.009807     96.000000
 -0.009807  0.019613 -0.009807     48.000000
  0.088259  0.000000 -0.088259     48.000000
  0.127485 -0.019613 -0.107872     96.000000
  0.166711 -0.039226 -0.127485     96.000000
 -0.107872  0.098065  0.009807     96.000000
 -0.068646  0.078452 -0.009807     96.000000
 -0.029420  0.058839 -0.029420     48.000000
  0.147098 -0.000000 -0.147098     48.000000
  0.186324 -0.019613 -0.166711     96.000000
 -0.088259  0.117678 -0.029420     96.000000
 -0.049033  0.098065 -0.049033     48.000000
  0.205937  0.000000 -0.205937     48.000000
 -0.068646  0.137291 -0.068646     48.000000
 


--------------------------------------------------------------------------------------------------------




 Dimension of arrays:
   k-points           NKPTS =     20   k-points in BZ     NKDIM =     20   number of bands    NBANDS=     65
   number of dos      NEDOS =    301   number of ions     NIONS =     25
   non local maximal  LDIM  =      5   non local SUM 2l+1 LMDIM =     13
   total plane-waves  NPLWV = 184320
   max r-space proj   IRMAX =   3324   max aug-charges    IRDMAX=   7712
   dimension x,y,z NGX =    24 NGY =   24 NGZ =  320
   dimension x,y,z NGXF=    32 NGYF=   32 NGZF=  480
   support grid    NGXF=    32 NGYF=   32 NGZF=  480
   ions per type =              12  13
   NGX,Y,Z   is equivalent  to a cutoff of  13.28, 13.28, 11.97 a.u.
   NGXF,Y,Z  is equivalent  to a cutoff of  17.71, 17.71, 17.96 a.u.

 SYSTEM =  Al110                                   
 POSCAR =  MgO25                                   

 Startparameter for this run:
   NWRITE =      2    write-flag & timer
   PREC   = h         normal or accurate (medium, high low for compatibility)
   ISTART =      0    job   : 0-new  1-cont  2-samecut
   ICHARG =      2    charge: 1-file 2-atom 10-const
   ISPIN  =      1    spin polarized calculation?
   LNONCOLLINEAR =      F non collinear calculations
   LSORBIT =      F    spin-orbit coupling
   INIWAV =      1    electr: 0-lowe 1-rand  2-diag
   LASPH  =      F    aspherical Exc in radial PAW
   METAGGA=      F    non-selfconsistent MetaGGA calc.

 Electronic Relaxation 1
   ENCUT  =  450.0 eV  33.07 Ry    5.75 a.u.   5.20  5.20 76.86*2*pi/ulx,y,z
   ENINI  =  450.0     initial cutoff
   ENAUG  =  605.4 eV  augmentation charge cutoff
   NELM   =    100;   NELMIN=  8; NELMDL=  8     # of ELM steps 
   EDIFF  = 0.1E-04   stopping-criterion for ELM
   LREAL  =      T    real-space projection
   NLSPLINE    = F    spline interpolate recip. space projectors
   LCOMPAT=      F    compatible to vasp.4.4
   GGA_COMPAT  = T    GGA compatible to vasp.4.4-vasp.4.6
   LMAXPAW     = -100 max onsite density
   LMAXMIX     =    2 max onsite mixed and CHGCAR
   VOSKOWN=      0    Vosko Wilk Nusair interpolation
   ROPT   =   -0.00040  -0.00040
 Ionic relaxation
   EDIFFG = -.1E-01   stopping-criterion for IOM
   NSW    =    500    number of steps for IOM
   NBLOCK =      1;   KBLOCK =    500    inner block; outer block 
   IBRION =      2    ionic relax: 0-MD 1-quasi-New 2-CG
   NFREE  =      1    steps in history (QN), initial steepest desc. (CG)
   ISIF   =      2    stress and relaxation
   IWAVPR =     11    prediction:  0-non 1-charg 2-wave 3-comb
   ISYM   =      2    0-nonsym 1-usesym 2-fastsym
   LCORR  =      T    Harris-Foulkes like correction to forces

   POTIM  = 0.5000    time-step for ionic-motion
   TEIN   =    0.0    initial temperature
   TEBEG  =    0.0;   TEEND  =   0.0 temperature during run
   SMASS  =  -3.00    Nose mass-parameter (am)
   estimated Nose-frequenzy (Omega)   =  0.10E-29 period in steps =****** mass=  -0.206E-27a.u.
   SCALEE = 1.0000    scale energy and forces
   NPACO  =    256;   APACO  = 16.0  distance and # of slots for P.C.
   PSTRESS=    0.0 pullay stress

  Mass of Ions in am
   POMASS =  24.30 16.00
  Ionic Valenz
   ZVAL   =   2.00  6.00
  Atomic Wigner-Seitz radii
   RWIGS  =  -1.00 -1.00
  virtual crystal weights 
   VCA    =   1.00  1.00
   NELECT =     102.0000    total number of electrons
   NUPDOWN=      -1.0000    fix difference up-down

 DOS related values:
   EMIN   =  10.00;   EMAX   =-10.00  energy-range for DOS
   EFERMI =   0.00
   ISMEAR =     0;   SIGMA  =   0.05  broadening in eV -4-tet -1-fermi 0-gaus

 Electronic relaxation 2 (details)
   IALGO  =     68    algorithm
   LDIAG  =      T    sub-space diagonalisation (order eigenvalues)
   LSUBROT=      F    optimize rotation matrix (better conditioning)
   TURBO    =      0    0=normal 1=particle mesh
   IRESTART =      0    0=no restart 2=restart with 2 vectors
   NREBOOT  =      0    no. of reboots
   NMIN     =      0    reboot dimension
   EREF     =   0.00    reference energy to select bands
   IMIX   =      4    mixing-type and parameters
     AMIX     =   0.40;   BMIX     =  1.00
     AMIX_MAG =   1.60;   BMIX_MAG =  1.00
     AMIN     =   0.10
     WC   =   100.;   INIMIX=   1;  MIXPRE=   1;  MAXMIX= -45

 Intra band minimization:
   WEIMIN = 0.0010     energy-eigenvalue tresh-hold
   EBREAK =  0.38E-07  absolut break condition
   DEPER  =   0.30     relativ break condition  

   TIME   =   0.40     timestep for ELM

  volume/ion in A,a.u.               =      13.89        93.77
  Fermi-wavevector in a.u.,A,eV,Ry     =   1.088121  2.056251 16.109400  1.184007
  Thomas-Fermi vector in A             =   2.224296
 
 Write flags
   LWAVE        =      F    write WAVECAR
   LDOWNSAMPLE  =      F    k-point downsampling of WAVECAR
   LCHARG       =      F    write CHGCAR
   LVTOT        =      F    write LOCPOT, total local potential
   LVHAR        =      F    write LOCPOT, Hartree potential only
   LELF         =      F    write electronic localiz. function (ELF)
   LORBIT       =      0    0 simple, 1 ext, 2 COOP (PROOUT), +10 PAW based schemes


 Dipole corrections
   LMONO  =      F    monopole corrections only (constant potential shift)
   LDIPOL =      F    correct potential (dipole corrections)
   IDIPOL =      0    1-x, 2-y, 3-z, 4-all directions 
   EPSILON=  1.0000000 bulk dielectric constant

 Exchange correlation treatment:
   GGA     =    --    GGA type
   LEXCH   =     8    internal setting for exchange type
   VOSKOWN=      0    Vosko Wilk Nusair interpolation
   LHFCALC =     F    Hartree Fock is set to
   LHFONE  =     F    Hartree Fock one center treatment
   AEXX    =    0.0000 exact exchange contribution

 Linear response parameters
   LEPSILON=     F    determine dielectric tensor
   LRPA    =     F    only Hartree local field effects (RPA)
   LNABLA  =     F    use nabla operator in PAW spheres
   LVEL    =     F    velocity operator in full k-point grid
   LINTERFAST=   F  fast interpolation
   KINTER  =     0    interpolate to denser k-point grid
   CSHIFT  =0.1000    complex shift for real part using Kramers Kronig
   OMEGAMAX=  -1.0    maximum frequency
   DEG_THRESHOLD= 0.2000000E-02 threshold for treating states as degnerate
   RTIME   =   -0.100 relaxation time in fs
  (WPLASMAI=    0.000 imaginary part of plasma frequency in eV, 0.658/RTIME)
   DFIELD  = 0.0000000 0.0000000 0.0000000 field for delta impulse in time
 
 Orbital magnetization related:
   ORBITALMAG=     F  switch on orbital magnetization
   LCHIMAG   =     F  perturbation theory with respect to B field
   DQ        =  0.001000  dq finite difference perturbation B field
   LLRAUG    =     F  two centre corrections for induced B field



--------------------------------------------------------------------------------------------------------


 conjugate gradient relaxation of ions
   using selective dynamics as specified on POSCAR
 charge density and potential will be updated during run
 non-spin polarized calculation
 RMM-DIIS sequential band-by-band and
  variant of blocked Davidson during initial phase
 perform sub-space diagonalisation
    before iterative eigenvector-optimisation
 modified Broyden-mixing scheme, WC =      100.0
 initial mixing is a Kerker type mixing with AMIX =  0.4000 and BMIX =      1.0000
 Hartree-type preconditioning will be used
 using additional bands           14
 real space projection scheme for non local part
 use partial core corrections
 calculate Harris-corrections to forces 
   (improved forces if not selfconsistent)
 use gradient corrections 
 use of overlap-Matrix (Vanderbilt PP)
 Gauss-broadening in eV      SIGMA  =   0.05


--------------------------------------------------------------------------------------------------------


  energy-cutoff  :      450.00
  volume of cell :      347.37
      direct lattice vectors                 reciprocal lattice vectors
     2.124436000 -2.124435000  0.000000000     0.313808828 -0.156904414 -0.156904414
     0.000000000  2.124436000 -2.124436000     0.156904340  0.156904414 -0.313808754
    25.655738000 25.655738000 25.655738000     0.012992541  0.012992547  0.012992547

  length of vectors
     3.004405496  3.004406204 44.437041722     0.384335753  0.384335662  0.022503748


 
 k-points in units of 2pi/SCALE and weight: K-Spacing Value to Generate K-Mesh: 0.02
   0.02941957  0.00000000 -0.02941957       0.031
   0.06864568 -0.01961305 -0.04903262       0.062
   0.10787178 -0.03922610 -0.06864568       0.062
   0.14709788 -0.05883916 -0.08825873       0.062
  -0.12748484  0.07845221  0.04903263       0.062
  -0.08825874  0.05883916  0.02941958       0.062
  -0.04903263  0.03922610  0.00980653       0.062
  -0.00980653  0.01961305 -0.00980652       0.031
   0.08825872  0.00000000 -0.08825872       0.031
   0.12748482 -0.01961305 -0.10787177       0.062
   0.16671093 -0.03922610 -0.12748482       0.062
  -0.10787180  0.09806526  0.00980654       0.062
  -0.06864569  0.07845221 -0.00980651       0.062
  -0.02941959  0.05883916 -0.02941956       0.031
   0.14709787 -0.00000000 -0.14709787       0.031
   0.18632397 -0.01961305 -0.16671092       0.062
  -0.08825876  0.11767831 -0.02941955       0.062
  -0.04903265  0.09806526 -0.04903261       0.031
   0.20593701  0.00000000 -0.20593701       0.031
  -0.06864571  0.13729136 -0.06864565       0.031
 
 k-points in reciprocal lattice and weights: K-Spacing Value to Generate K-Mesh: 0.02
   0.06250000  0.06250000  0.00000000       0.031
   0.18750000  0.06250000  0.00000000       0.062
   0.31250000  0.06250000  0.00000000       0.062
   0.43750000  0.06250000 -0.00000000       0.062
  -0.43750000  0.06250000 -0.00000000       0.062
  -0.31250000  0.06250000 -0.00000000       0.062
  -0.18750000  0.06250000  0.00000000       0.062
  -0.06250000  0.06250000  0.00000000       0.031
   0.18750000  0.18750000  0.00000000       0.031
   0.31250000  0.18750000  0.00000000       0.062
   0.43750000  0.18750000 -0.00000000       0.062
  -0.43750000  0.18750000 -0.00000000       0.062
  -0.31250000  0.18750000  0.00000000       0.062
  -0.18750000  0.18750000  0.00000000       0.031
   0.31250000  0.31250000  0.00000000       0.031
   0.43750000  0.31250000  0.00000000       0.062
  -0.43750000  0.31250000 -0.00000000       0.062
  -0.31250000  0.31250000  0.00000000       0.031
   0.43750000  0.43750000  0.00000000       0.031
  -0.43750000  0.43750000 -0.00000000       0.031
 
 position of ions in fractional coordinates (direct lattice) 
   0.00000000  0.00000000  0.10530900
   0.33333300  0.66666700  0.16051300
   0.00000000  0.00000000  0.27092000
   0.33333300  0.66666700  0.32612400
   0.00000000  0.00000000  0.43653100
   0.33333300  0.66666700  0.49173500
   0.00000000  0.00000000  0.60214200
   0.33333300  0.66666700  0.65734600
   0.66666700  0.33333300  0.05010600
   0.66666700  0.33333300  0.21571700
   0.66666700  0.33333300  0.38132700
   0.66666700  0.33333300  0.54693800
   0.00000000  0.00000000  0.02250400
   0.00000000  0.00000000  0.18811500
   0.00000000  0.00000000  0.35372600
   0.00000000  0.00000000  0.51933700
   0.00000000  0.00000000  0.68494800
   0.66666700  0.33333300  0.13291100
   0.66666700  0.33333300  0.29852200
   0.66666700  0.33333300  0.46413300
   0.66666700  0.33333300  0.62974400
   0.33333300  0.66666700  0.07770700
   0.33333300  0.66666700  0.24331800
   0.33333300  0.66666700  0.40892900
   0.33333300  0.66666700  0.57454000
 
 position of ions in cartesian coordinates  (Angst):
   2.70178011  2.70178011  2.70178011
   4.82622410  4.82622656  2.70178810
   6.95065254  6.95065254  6.95065254
   9.07509652  9.07509898  6.95066052
  11.19952496 11.19952496 11.19952496
  13.32396895 13.32397141 11.19953295
  15.44839739 15.44839739 15.44839739
  17.57284138 17.57284383 15.44840538
   2.70179778  0.57736033  0.57736178
   6.95067021  4.82623275  4.82623421
  11.19951698  9.07507952  9.07508098
  15.44838941 13.32395195 13.32395341
   0.57735673  0.57735673  0.57735673
   4.82622915  4.82622915  4.82622915
   9.07510158  9.07510158  9.07510158
  13.32397401 13.32397401 13.32397401
  17.57284643 17.57284643 17.57284643
   4.82622117  2.70178371  2.70178517
   9.07509359  6.95065614  6.95065759
  13.32396602 11.19952856 11.19953002
  17.57283845 15.44840099 15.44840245
   2.70177506  2.70177752  0.57733906
   6.95064748  6.95064994  4.82621148
  11.19951991 11.19952237  9.07508391
  15.44839234 15.44839479 13.32395634
 


--------------------------------------------------------------------------------------------------------


 k-point  1 :   0.0625 0.0625 0.0000  plane waves:    7487
 k-point  2 :   0.1875 0.0625 0.0000  plane waves:    7520
 k-point  3 :   0.3125 0.0625 0.0000  plane waves:    7566
 k-point  4 :   0.4375 0.0625-0.0000  plane waves:    7560
 k-point  5 :  -0.4375 0.0625-0.0000  plane waves:    7568
 k-point  6 :  -0.3125 0.0625-0.0000  plane waves:    7534
 k-point  7 :  -0.1875 0.0625 0.0000  plane waves:    7505
 k-point  8 :  -0.0625 0.0625 0.0000  plane waves:    7477
 k-point  9 :   0.1875 0.1875 0.0000  plane waves:    7499
 k-point 10 :   0.3125 0.1875 0.0000  plane waves:    7527
 k-point 11 :   0.4375 0.1875-0.0000  plane waves:    7533
 k-point 12 :  -0.4375 0.1875-0.0000  plane waves:    7511
 k-point 13 :  -0.3125 0.1875 0.0000  plane waves:    7492
 k-point 14 :  -0.1875 0.1875 0.0000  plane waves:    7485
 k-point 15 :   0.3125 0.3125 0.0000  plane waves:    7489
 k-point 16 :   0.4375 0.3125 0.0000  plane waves:    7522
 k-point 17 :  -0.4375 0.3125-0.0000  plane waves:    7549
 k-point 18 :  -0.3125 0.3125 0.0000  plane waves:    7555
 k-point 19 :   0.4375 0.4375 0.0000  plane waves:    7530
 k-point 20 :  -0.4375 0.4375-0.0000  plane waves:    7579

 maximum and minimum number of plane-waves per node :      1918     1854

 maximum number of plane-waves:      7579
 maximum index in each direction: 
   IXMAX=    5   IYMAX=    5   IZMAX=   76
   IXMIN=   -5   IYMIN=   -5   IZMIN=  -76


 real space projection operators:
  total allocation   :       5538.02 KBytes
  max/ min on nodes  :       1397.80       1368.06


 parallel 3D FFT for wavefunctions:
    minimum data exchange during FFTs selected (reduces bandwidth)
 parallel 3D FFT for charge:
    minimum data exchange during FFTs selected (reduces bandwidth)


 total amount of memory used by VASP MPI-rank0    47396. kBytes
=======================================================================

   base      :      30000. kBytes
   nonlr-proj:       3126. kBytes
   fftplans  :       2449. kBytes
   grid      :       3570. kBytes
   one-center:         56. kBytes
   wavefun   :       8195. kBytes
 
     INWAV:  cpu time    0.0000: real time    0.0001
 Broyden mixing: mesh for mixing (old mesh)
   NGX = 11   NGY = 11   NGZ =153
  (NGX  = 32   NGY  = 32   NGZ  =480)
  gives a total of  18513 points

 initial charge density was supplied:
 charge density of overlapping atoms calculated
 number of electron     102.0000000 magnetization 
 keeping initial charge density in first step


--------------------------------------------------------------------------------------------------------


 Maximum index for non-local projection operator          817
 Maximum index for augmentation-charges          558 (set IRDMAX)


--------------------------------------------------------------------------------------------------------


 First call to EWALD:  gamma=   0.252
 Maximum number of real-space cells 7x 7x 1
 Maximum number of reciprocal cells 1x 1x15

    FEWALD:  cpu time    0.0016: real time    0.0016


--------------------------------------- Iteration      1(   1)  ---------------------------------------


    POTLOK:  cpu time    0.0217: real time    0.0227
    SETDIJ:  cpu time    0.0035: real time    0.0035
     EDDAV:  cpu time    3.2658: real time    3.2886
       DOS:  cpu time    0.0010: real time    0.0016
    --------------------------------------------
      LOOP:  cpu time    3.2921: real time    3.3163

 eigenvalue-minimisations  :  2640
 total energy-change (2. order) : 0.6787482E+03  (-0.4537438E+04)
 number of electron     102.0000000 magnetization 
 augmentation part      102.0000000 magnetization 

 Free energy of the ion-electron system (eV)
  ---------------------------------------------------
  alpha Z        PSCENC =       167.69535705
  Ewald energy   TEWEN  =     34803.53380525
  -Hartree energ DENC   =    -40500.44327144
  -exchange      EXHF   =         0.00000000
  -V(xc)+E(xc)   XCENC  =      -220.32269899
  PAW double counting   =      5288.82354279    -4689.85342306
  entropy T*S    EENTRO =        -0.00639663
  eigenvalues    EBANDS =       -67.53877642
  atomic energy  EATOM  =      5896.86004693
  Solvation  Ediel_sol  =         0.00000000
  ---------------------------------------------------
  free energy    TOTEN  =       678.74818548 eV

  energy without entropy =      678.75458211  energy(sigma->0) =      678.75138380


--------------------------------------------------------------------------------------------------------




--------------------------------------- Iteration      1(   2)  ---------------------------------------


     EDDAV:  cpu time    3.8510: real time    3.8589
       DOS:  cpu time    0.0012: real time    0.0017
    --------------------------------------------
      LOOP:  cpu time    3.8522: real time    3.8606

 eigenvalue-minimisations  :  3325
 total energy-change (2. order) :-0.7685652E+03  (-0.7526715E+03)
 number of electron     102.0000000 magnetization 
 augmentation part      102.0000000 magnetization 

 Free energy of the ion-electron system (eV)
  ---------------------------------------------------
  alpha Z        PSCENC =       167.69535705
  Ewald energy   TEWEN  =     34803.53380525
  -Hartree energ DENC   =    -40500.44327144
  -exchange      EXHF   =         0.00000000
  -V(xc)+E(xc)   XCENC  =      -220.32269899
  PAW double counting   =      5288.82354279    -4689.85342306
  entropy T*S    EENTRO =        -0.00635829
  eigenvalues    EBANDS =      -836.10402695
  atomic energy  EATOM  =      5896.86004693
  Solvation  Ediel_sol  =         0.00000000
  ---------------------------------------------------
  free energy    TOTEN  =       -89.81702671 eV

  energy without entropy =      -89.81066842  energy(sigma->0) =      -89.81384756


--------------------------------------------------------------------------------------------------------




--------------------------------------- Iteration      1(   3)  ---------------------------------------


     EDDAV:  cpu time    3.8429: real time    3.8507
       DOS:  cpu time    0.0013: real time    0.0018
    --------------------------------------------
      LOOP:  cpu time    3.8442: real time    3.8525

 eigenvalue-minimisations  :  2940
 total energy-change (2. order) :-0.7025545E+02  (-0.6922075E+02)
 number of electron     102.0000000 magnetization 
 augmentation part      102.0000000 magnetization 

 Free energy of the ion-electron system (eV)
  ---------------------------------------------------
  alpha Z        PSCENC =       167.69535705
  Ewald energy   TEWEN  =     34803.53380525
  -Hartree energ DENC   =    -40500.44327144
  -exchange      EXHF   =         0.00000000
  -V(xc)+E(xc)   XCENC  =      -220.32269899
  PAW double counting   =      5288.82354279    -4689.85342306
  entropy T*S    EENTRO =        -0.00955845
  eigenvalues    EBANDS =      -906.35627821
  atomic energy  EATOM  =      5896.86004693
  Solvation  Ediel_sol  =         0.00000000
  ---------------------------------------------------
  free energy    TOTEN  =      -160.07247813 eV

  energy without entropy =     -160.06291968  energy(sigma->0) =     -160.06769890


--------------------------------------------------------------------------------------------------------




--------------------------------------- Iteration      1(   4)  ---------------------------------------


     EDDAV:  cpu time    3.7777: real time    3.7851
       DOS:  cpu time    0.0009: real time    0.0009
    --------------------------------------------
      LOOP:  cpu time    3.7785: real time    3.7860

 eigenvalue-minimisations  :  3140
 total energy-change (2. order) :-0.1495794E+01  (-0.1490127E+01)
 number of electron     102.0000000 magnetization 
 augmentation part      102.0000000 magnetization 

 Free energy of the ion-electron system (eV)
  ---------------------------------------------------
  alpha Z        PSCENC =       167.69535705
  Ewald energy   TEWEN  =     34803.53380525
  -Hartree energ DENC   =    -40500.44327144
  -exchange      EXHF   =         0.00000000
  -V(xc)+E(xc)   XCENC  =      -220.32269899
  PAW double counting   =      5288.82354279    -4689.85342306
  entropy T*S    EENTRO =        -0.00763752
  eigenvalues    EBANDS =      -907.85399348
  atomic energy  EATOM  =      5896.86004693
  Solvation  Ediel_sol  =         0.00000000
  ---------------------------------------------------
  free energy    TOTEN  =      -161.56827247 eV

  energy without entropy =     -161.56063496  energy(sigma->0) =     -161.56445371


--------------------------------------------------------------------------------------------------------




--------------------------------------- Iteration      1(   5)  ---------------------------------------


     EDDAV:  cpu time    4.1201: real time    4.1277
       DOS:  cpu time    0.0010: real time    0.0017
    --------------------------------------------
      LOOP:  cpu time    4.1211: real time    4.1294

 eigenvalue-minimisations  :  3135
 total energy-change (2. order) :-0.3678581E-01  (-0.3675643E-01)
 number of electron     102.0000000 magnetization 
 augmentation part      102.0000000 magnetization 

 Free energy of the ion-electron system (eV)
  ---------------------------------------------------
  alpha Z        PSCENC =       167.69535705
  Ewald energy   TEWEN  =     34803.53380525
  -Hartree energ DENC   =    -40500.44327144
  -exchange      EXHF   =         0.00000000
  -V(xc)+E(xc)   XCENC  =      -220.32269899
  PAW double counting   =      5288.82354279    -4689.85342306
  entropy T*S    EENTRO =        -0.00763558
  eigenvalues    EBANDS =      -907.89078122
  atomic energy  EATOM  =      5896.86004693
  Solvation  Ediel_sol  =         0.00000000
  ---------------------------------------------------
  free energy    TOTEN  =      -161.60505828 eV

  energy without entropy =     -161.59742270  energy(sigma->0) =     -161.60124049


--------------------------------------------------------------------------------------------------------




--------------------------------------- Iteration      1(   6)  ---------------------------------------


     EDDAV:  cpu time    3.9439: real time    3.9534
       DOS:  cpu time    0.0009: real time    0.0009
    --------------------------------------------
      LOOP:  cpu time    3.9448: real time    3.9543

 eigenvalue-minimisations  :  3220
 total energy-change (2. order) :-0.1332929E-02  (-0.1332600E-02)
 number of electron     102.0000000 magnetization 
 augmentation part      102.0000000 magnetization 

 Free energy of the ion-electron system (eV)
  ---------------------------------------------------
  alpha Z        PSCENC =       167.69535705
  Ewald energy   TEWEN  =     34803.53380525
  -Hartree energ DENC   =    -40500.44327144
  -exchange      EXHF   =         0.00000000
  -V(xc)+E(xc)   XCENC  =      -220.32269899
  PAW double counting   =      5288.82354279    -4689.85342306
  entropy T*S    EENTRO =        -0.00763561
  eigenvalues    EBANDS =      -907.89211413
  atomic energy  EATOM  =      5896.86004693
  Solvation  Ediel_sol  =         0.00000000
  ---------------------------------------------------
  free energy    TOTEN  =      -161.60639121 eV

  energy without entropy =     -161.59875560  energy(sigma->0) =     -161.60257340


--------------------------------------------------------------------------------------------------------




--------------------------------------- Iteration      1(   7)  ---------------------------------------


     EDDAV:  cpu time    3.8441: real time    3.8556
       DOS:  cpu time    0.0010: real time    0.0010
    --------------------------------------------
      LOOP:  cpu time    3.8451: real time    3.8566

 eigenvalue-minimisations  :  3135
 total energy-change (2. order) :-0.4748402E-04  (-0.4747606E-04)
 number of electron     102.0000000 magnetization 
 augmentation part      102.0000000 magnetization 

 Free energy of the ion-electron system (eV)
  ---------------------------------------------------
  alpha Z        PSCENC =       167.69535705
  Ewald energy   TEWEN  =     34803.53380525
  -Hartree energ DENC   =    -40500.44327144
  -exchange      EXHF   =         0.00000000
  -V(xc)+E(xc)   XCENC  =      -220.32269899
  PAW double counting   =      5288.82354279    -4689.85342306
  entropy T*S    EENTRO =        -0.00763561
  eigenvalues    EBANDS =      -907.89216161
  atomic energy  EATOM  =      5896.86004693
  Solvation  Ediel_sol  =         0.00000000
  ---------------------------------------------------
  free energy    TOTEN  =      -161.60643869 eV

  energy without entropy =     -161.59880308  energy(sigma->0) =     -161.60262089


--------------------------------------------------------------------------------------------------------




--------------------------------------- Iteration      1(   8)  ---------------------------------------


     EDDAV:  cpu time    3.2590: real time    3.2660
       DOS:  cpu time    0.0009: real time    0.0009
    CHARGE:  cpu time    0.1250: real time    0.1250
    MIXING:  cpu time    0.0010: real time    0.0010
    --------------------------------------------
      LOOP:  cpu time    3.3859: real time    3.3929

 eigenvalue-minimisations  :  2490
 total energy-change (2. order) :-0.2174146E-05  (-0.2173847E-05)
 number of electron     102.0000014 magnetization 
 augmentation part       10.0774580 magnetization 

 Broyden mixing:
  rms(total) = 0.24443E+01    rms(broyden)= 0.24430E+01
  rms(prec ) = 0.24945E+01
  weight for this iteration     100.00

 Free energy of the ion-electron system (eV)
  ---------------------------------------------------
  alpha Z        PSCENC =       167.69535705
  Ewald energy   TEWEN  =     34803.53380525
  -Hartree energ DENC   =    -40500.44327144
  -exchange      EXHF   =         0.00000000
  -V(xc)+E(xc)   XCENC  =      -220.32269899
  PAW double counting   =      5288.82354279    -4689.85342306
  entropy T*S    EENTRO =        -0.00763561
  eigenvalues    EBANDS =      -907.89216378
  atomic energy  EATOM  =      5896.86004693
  Solvation  Ediel_sol  =         0.00000000
  ---------------------------------------------------
  free energy    TOTEN  =      -161.60644087 eV

  energy without entropy =     -161.59880526  energy(sigma->0) =     -161.60262306


--------------------------------------------------------------------------------------------------------




--------------------------------------- Iteration      1(   9)  ---------------------------------------


    POTLOK:  cpu time    0.0114: real time    0.0115
    SETDIJ:  cpu time    0.0031: real time    0.0031
    EDDIAG:  cpu time    0.4735: real time    0.4746
  RMM-DIIS:  cpu time    2.3464: real time    2.3504
    ORTHCH:  cpu time    0.0501: real time    0.0501
       DOS:  cpu time    0.0011: real time    0.0019
    CHARGE:  cpu time    0.1305: real time    0.1306
    MIXING:  cpu time    0.0009: real time    0.0009
    --------------------------------------------
      LOOP:  cpu time    3.0170: real time    3.0231

 eigenvalue-minimisations  :  2600
 total energy-change (2. order) : 0.1743681E+02  (-0.8572059E+01)
 number of electron     101.9999996 magnetization 
 augmentation part        8.4845846 magnetization 

 Broyden mixing:
  rms(total) = 0.85334E+00    rms(broyden)= 0.85173E+00
  rms(prec ) = 0.87273E+00
  weight for this iteration     100.00

 eigenvalues of (default mixing * dielectric matrix)
  average eigenvalue GAMMA=   0.8412
  0.8412

 Free energy of the ion-electron system (eV)
  ---------------------------------------------------
  alpha Z        PSCENC =       167.69535705
  Ewald energy   TEWEN  =     34803.53380525
  -Hartree energ DENC   =    -40723.36852837
  -exchange      EXHF   =         0.00000000
  -V(xc)+E(xc)   XCENC  =      -204.76331741
  PAW double counting   =      6153.45047905    -5558.53501422
  entropy T*S    EENTRO =        -0.01941529
  eigenvalues    EBANDS =      -679.02304831
  atomic energy  EATOM  =      5896.86004693
  Solvation  Ediel_sol  =         0.00000000
  ---------------------------------------------------
  free energy    TOTEN  =      -144.16963531 eV

  energy without entropy =     -144.15022002  energy(sigma->0) =     -144.15992767


--------------------------------------------------------------------------------------------------------




--------------------------------------- Iteration      1(  10)  ---------------------------------------


    POTLOK:  cpu time    0.0136: real time    0.0159
    SETDIJ:  cpu time    0.0031: real time    0.0040
    EDDIAG:  cpu time    0.4429: real time    0.4435
  RMM-DIIS:  cpu time    2.2529: real time    2.2564
    ORTHCH:  cpu time    0.0498: real time    0.0498
       DOS:  cpu time    0.0009: real time    0.0009
    CHARGE:  cpu time    0.1455: real time    0.1461
    MIXING:  cpu time    0.0007: real time    0.0007
    --------------------------------------------
      LOOP:  cpu time    2.9094: real time    2.9174

 eigenvalue-minimisations  :  2600
 total energy-change (2. order) :-0.1088695E+00  (-0.2712300E+00)
 number of electron     102.0000010 magnetization 
 augmentation part        8.4113610 magnetization 

 Broyden mixing:
  rms(total) = 0.60451E+00    rms(broyden)= 0.60400E+00
  rms(prec ) = 0.61303E+00
  weight for this iteration     100.00

 eigenvalues of (default mixing * dielectric matrix)
  average eigenvalue GAMMA=   0.7794
  0.7794  0.7794

 Free energy of the ion-electron system (eV)
  ---------------------------------------------------
  alpha Z        PSCENC =       167.69535705
  Ewald energy   TEWEN  =     34803.53380525
  -Hartree energ DENC   =    -40673.67366864
  -exchange      EXHF   =         0.00000000
  -V(xc)+E(xc)   XCENC  =      -203.84234763
  PAW double counting   =      6430.88294418    -5835.67758305
  entropy T*S    EENTRO =        -0.00639258
  eigenvalues    EBANDS =      -730.05066636
  atomic energy  EATOM  =      5896.86004693
  Solvation  Ediel_sol  =         0.00000000
  ---------------------------------------------------
  free energy    TOTEN  =      -144.27850486 eV

  energy without entropy =     -144.27211227  energy(sigma->0) =     -144.27530856


--------------------------------------------------------------------------------------------------------




--------------------------------------- Iteration      1(  11)  ---------------------------------------


    POTLOK:  cpu time    0.0117: real time    0.0118
    SETDIJ:  cpu time    0.0033: real time    0.0041
    EDDIAG:  cpu time    0.4555: real time    0.4561
  RMM-DIIS:  cpu time    2.1782: real time    2.1830
    ORTHCH:  cpu time    0.0463: real time    0.0464
       DOS:  cpu time    0.0009: real time    0.0009
    CHARGE:  cpu time    0.1308: real time    0.1310
    MIXING:  cpu time    0.0008: real time    0.0008
    --------------------------------------------
      LOOP:  cpu time    2.8276: real time    2.8341

 eigenvalue-minimisations  :  2600
 total energy-change (2. order) : 0.3529435E+00  (-0.5895447E-01)
 number of electron     102.0000006 magnetization 
 augmentation part        8.4387423 magnetization 

 Broyden mixing:
  rms(total) = 0.56072E+00    rms(broyden)= 0.56051E+00
  rms(prec ) = 0.65918E+00
  weight for this iteration     100.00

 eigenvalues of (default mixing * dielectric matrix)
  average eigenvalue GAMMA=   0.7410
  0.8812  0.8812  0.4606

 Free energy of the ion-electron system (eV)
  ---------------------------------------------------
  alpha Z        PSCENC =       167.69535705
  Ewald energy   TEWEN  =     34803.53380525
  -Hartree energ DENC   =    -40692.01780134
  -exchange      EXHF   =         0.00000000
  -V(xc)+E(xc)   XCENC  =      -203.58514152
  PAW double counting   =      6565.58796226    -5970.18625771
  entropy T*S    EENTRO =        -0.01552771
  eigenvalues    EBANDS =      -711.79800459
  atomic energy  EATOM  =      5896.86004693
  Solvation  Ediel_sol  =         0.00000000
  ---------------------------------------------------
  free energy    TOTEN  =      -143.92556138 eV

  energy without entropy =     -143.91003368  energy(sigma->0) =     -143.91779753


--------------------------------------------------------------------------------------------------------




--------------------------------------- Iteration      1(  12)  ---------------------------------------


    POTLOK:  cpu time    0.0125: real time    0.0126
    SETDIJ:  cpu time    0.0043: real time    0.0043
    EDDIAG:  cpu time    0.4986: real time    0.4998
  RMM-DIIS:  cpu time    2.2814: real time    2.2849
    ORTHCH:  cpu time    0.0459: real time    0.0459
       DOS:  cpu time    0.0009: real time    0.0009
    CHARGE:  cpu time    0.1310: real time    0.1311
    MIXING:  cpu time    0.0010: real time    0.0010
    --------------------------------------------
      LOOP:  cpu time    2.9755: real time    2.9805

 eigenvalue-minimisations  :  2600
 total energy-change (2. order) :-0.4301317E+01  (-0.5930042E-01)
 number of electron     102.0000001 magnetization 
 augmentation part        8.4629824 magnetization 

 Broyden mixing:
  rms(total) = 0.10482E+01    rms(broyden)= 0.10475E+01
  rms(prec ) = 0.12713E+01
  weight for this iteration     100.00

 eigenvalues of (default mixing * dielectric matrix)
  average eigenvalue GAMMA=   0.9245
  1.9736  1.0346  0.5854  0.1045

 Free energy of the ion-electron system (eV)
  ---------------------------------------------------
  alpha Z        PSCENC =       167.69535705
  Ewald energy   TEWEN  =     34803.53380525
  -Hartree energ DENC   =    -40699.43425588
  -exchange      EXHF   =         0.00000000
  -V(xc)+E(xc)   XCENC  =      -203.42169705
  PAW double counting   =      6617.00090238    -6021.54534901
  entropy T*S    EENTRO =        -0.01468978
  eigenvalues    EBANDS =      -708.90099853
  atomic energy  EATOM  =      5896.86004693
  Solvation  Ediel_sol  =         0.00000000
  ---------------------------------------------------
  free energy    TOTEN  =      -148.22687864 eV

  energy without entropy =     -148.21218886  energy(sigma->0) =     -148.21953375


--------------------------------------------------------------------------------------------------------




--------------------------------------- Iteration      1(  13)  ---------------------------------------


    POTLOK:  cpu time    0.0119: real time    0.0120
    SETDIJ:  cpu time    0.0031: real time    0.0031
    EDDIAG:  cpu time    0.4722: real time    0.4729
  RMM-DIIS:  cpu time    2.2392: real time    2.2429
    ORTHCH:  cpu time    0.0465: real time    0.0466
       DOS:  cpu time    0.0010: real time    0.0010
    CHARGE:  cpu time    0.1317: real time    0.1321
    MIXING:  cpu time    0.0011: real time    0.0011
    --------------------------------------------
      LOOP:  cpu time    2.9067: real time    2.9116

 eigenvalue-minimisations  :  2600
 total energy-change (2. order) : 0.1264420E+01  (-0.5060601E-01)
 number of electron     101.9999995 magnetization 
 augmentation part        8.4887053 magnetization 

 Broyden mixing:
  rms(total) = 0.88788E+00    rms(broyden)= 0.88763E+00
  rms(prec ) = 0.11302E+01
  weight for this iteration     100.00

 eigenvalues of (default mixing * dielectric matrix)
  average eigenvalue GAMMA=   0.8957
  2.2371  1.0143  0.5520  0.5520  0.1229

 Free energy of the ion-electron system (eV)
  ---------------------------------------------------
  alpha Z        PSCENC =       167.69535705
  Ewald energy   TEWEN  =     34803.53380525
  -Hartree energ DENC   =    -40733.03970482
  -exchange      EXHF   =         0.00000000
  -V(xc)+E(xc)   XCENC  =      -202.58265111
  PAW double counting   =      6849.40941202    -6253.73662816
  entropy T*S    EENTRO =        -0.02116301
  eigenvalues    EBANDS =      -675.08093278
  atomic energy  EATOM  =      5896.86004693
  Solvation  Ediel_sol  =         0.00000000
  ---------------------------------------------------
  free energy    TOTEN  =      -146.96245864 eV

  energy without entropy =     -146.94129563  energy(sigma->0) =     -146.95187714


--------------------------------------------------------------------------------------------------------




--------------------------------------- Iteration      1(  14)  ---------------------------------------


    POTLOK:  cpu time    0.0229: real time    0.0241
    SETDIJ:  cpu time    0.0058: real time    0.0058
    EDDIAG:  cpu time    0.4875: real time    0.4883
  RMM-DIIS:  cpu time    2.2468: real time    2.2512
    ORTHCH:  cpu time    0.0459: real time    0.0459
       DOS:  cpu time    0.0010: real time    0.0010
    CHARGE:  cpu time    0.1308: real time    0.1309
    MIXING:  cpu time    0.0009: real time    0.0009
    --------------------------------------------
      LOOP:  cpu time    2.9415: real time    2.9480

 eigenvalue-minimisations  :  2600
 total energy-change (2. order) : 0.2988434E+01  (-0.2998778E-01)
 number of electron     102.0000002 magnetization 
 augmentation part        8.4831137 magnetization 

 Broyden mixing:
  rms(total) = 0.62789E+00    rms(broyden)= 0.62691E+00
  rms(prec ) = 0.76321E+00
  weight for this iteration     100.00

 eigenvalues of (default mixing * dielectric matrix)
  average eigenvalue GAMMA=   0.8440
  2.4804  0.9803  0.5489  0.5489  0.3849  0.1207

 Free energy of the ion-electron system (eV)
  ---------------------------------------------------
  alpha Z        PSCENC =       167.69535705
  Ewald energy   TEWEN  =     34803.53380525
  -Hartree energ DENC   =    -40727.05286240
  -exchange      EXHF   =         0.00000000
  -V(xc)+E(xc)   XCENC  =      -202.32497162
  PAW double counting   =      6891.64202355    -6295.94604669
  entropy T*S    EENTRO =        -0.01869493
  eigenvalues    EBANDS =      -678.36268160
  atomic energy  EATOM  =      5896.86004693
  Solvation  Ediel_sol  =         0.00000000
  ---------------------------------------------------
  free energy    TOTEN  =      -143.97402446 eV

  energy without entropy =     -143.95532953  energy(sigma->0) =     -143.96467699


--------------------------------------------------------------------------------------------------------




--------------------------------------- Iteration      1(  15)  ---------------------------------------


    POTLOK:  cpu time    0.0122: real time    0.0123
    SETDIJ:  cpu time    0.0032: real time    0.0032
    EDDIAG:  cpu time    0.4895: real time    0.4907
  RMM-DIIS:  cpu time    2.0313: real time    2.0350
    ORTHCH:  cpu time    0.0591: real time    0.0596
       DOS:  cpu time    0.0060: real time    0.0060
    CHARGE:  cpu time    0.1317: real time    0.1319
    MIXING:  cpu time    0.0010: real time    0.0010
    --------------------------------------------
      LOOP:  cpu time    2.7340: real time    2.7396

 eigenvalue-minimisations  :  2600
 total energy-change (2. order) :-0.1971599E+00  (-0.7296416E-02)
 number of electron     101.9999998 magnetization 
 augmentation part        8.4863820 magnetization 

 Broyden mixing:
  rms(total) = 0.81300E+00    rms(broyden)= 0.81184E+00
  rms(prec ) = 0.10602E+01
  weight for this iteration     100.00

 eigenvalues of (default mixing * dielectric matrix)
  average eigenvalue GAMMA=   0.7460
  2.4762  0.9815  0.6360  0.6360  0.1140  0.1980  0.1798

 Free energy of the ion-electron system (eV)
  ---------------------------------------------------
  alpha Z        PSCENC =       167.69535705
  Ewald energy   TEWEN  =     34803.53380525
  -Hartree energ DENC   =    -40728.16902824
  -exchange      EXHF   =         0.00000000
  -V(xc)+E(xc)   XCENC  =      -202.08551028
  PAW double counting   =      6922.77010391    -6327.07167729
  entropy T*S    EENTRO =        -0.02382190
  eigenvalues    EBANDS =      -677.68045973
  atomic energy  EATOM  =      5896.86004693
  Solvation  Ediel_sol  =         0.00000000
  ---------------------------------------------------
  free energy    TOTEN  =      -144.17118432 eV

  energy without entropy =     -144.14736241  energy(sigma->0) =     -144.15927336


--------------------------------------------------------------------------------------------------------




--------------------------------------- Iteration      1(  16)  ---------------------------------------


    POTLOK:  cpu time    0.0127: real time    0.0129
    SETDIJ:  cpu time    0.0033: real time    0.0033
    EDDIAG:  cpu time    0.4775: real time    0.4782
  RMM-DIIS:  cpu time    2.2422: real time    2.2460
    ORTHCH:  cpu time    0.0440: real time    0.0440
       DOS:  cpu time    0.0016: real time    0.0017
    CHARGE:  cpu time    0.1277: real time    0.1279
    MIXING:  cpu time    0.0011: real time    0.0011
    --------------------------------------------
      LOOP:  cpu time    2.9100: real time    2.9149

 eigenvalue-minimisations  :  2628
 total energy-change (2. order) : 0.1924272E+00  (-0.4694613E-02)
 number of electron     102.0000003 magnetization 
 augmentation part        8.4776749 magnetization 

 Broyden mixing:
  rms(total) = 0.67068E+00    rms(broyden)= 0.67042E+00
  rms(prec ) = 0.87537E+00
  weight for this iteration     100.00

 eigenvalues of (default mixing * dielectric matrix)
  average eigenvalue GAMMA=   0.7369
  2.5000  0.9439  0.7143  0.7143  0.3852  0.2590  0.2590  0.1197

 Free energy of the ion-electron system (eV)
  ---------------------------------------------------
  alpha Z        PSCENC =       167.69535705
  Ewald energy   TEWEN  =     34803.53380525
  -Hartree energ DENC   =    -40723.51075756
  -exchange      EXHF   =         0.00000000
  -V(xc)+E(xc)   XCENC  =      -202.03526513
  PAW double counting   =      6921.24158864    -6325.55620982
  entropy T*S    EENTRO =        -0.02624886
  eigenvalues    EBANDS =      -682.18107359
  atomic energy  EATOM  =      5896.86004693
  Solvation  Ediel_sol  =         0.00000000
  ---------------------------------------------------
  free energy    TOTEN  =      -143.97875709 eV

  energy without entropy =     -143.95250823  energy(sigma->0) =     -143.96563266


--------------------------------------------------------------------------------------------------------




--------------------------------------- Iteration      1(  17)  ---------------------------------------


    POTLOK:  cpu time    0.0120: real time    0.0136
    SETDIJ:  cpu time    0.0029: real time    0.0034
    EDDIAG:  cpu time    0.5342: real time    0.5382
  RMM-DIIS:  cpu time    2.3755: real time    2.3811
    ORTHCH:  cpu time    0.0494: real time    0.0495
       DOS:  cpu time    0.0010: real time    0.0010
    CHARGE:  cpu time    0.1291: real time    0.1298
    MIXING:  cpu time    0.0012: real time    0.0012
    --------------------------------------------
      LOOP:  cpu time    3.1054: real time    3.1179

 eigenvalue-minimisations  :  2600
 total energy-change (2. order) : 0.9805438E-01  (-0.1740552E-02)
 number of electron     102.0000006 magnetization 
 augmentation part        8.4606113 magnetization 

 Broyden mixing:
  rms(total) = 0.43308E+00    rms(broyden)= 0.43129E+00
  rms(prec ) = 0.53361E+00
  weight for this iteration     100.00

 eigenvalues of (default mixing * dielectric matrix)
  average eigenvalue GAMMA=   0.7041
  2.5136  0.9029  0.6582  0.6582  0.5278  0.5035  0.1199  0.2265  0.2265

 Free energy of the ion-electron system (eV)
  ---------------------------------------------------
  alpha Z        PSCENC =       167.69535705
  Ewald energy   TEWEN  =     34803.53380525
  -Hartree energ DENC   =    -40725.07213754
  -exchange      EXHF   =         0.00000000
  -V(xc)+E(xc)   XCENC  =      -201.90916083
  PAW double counting   =      6921.05538339    -6325.40284941
  entropy T*S    EENTRO =        -0.01150765
  eigenvalues    EBANDS =      -680.62963989
  atomic energy  EATOM  =      5896.86004693
  Solvation  Ediel_sol  =         0.00000000
  ---------------------------------------------------
  free energy    TOTEN  =      -143.88070271 eV

  energy without entropy =     -143.86919506  energy(sigma->0) =     -143.87494888


--------------------------------------------------------------------------------------------------------




--------------------------------------- Iteration      1(  18)  ---------------------------------------


    POTLOK:  cpu time    0.0136: real time    0.0148
    SETDIJ:  cpu time    0.0039: real time    0.0043
    EDDIAG:  cpu time    0.4425: real time    0.4430
  RMM-DIIS:  cpu time    2.2664: real time    2.2702
    ORTHCH:  cpu time    0.0549: real time    0.0553
       DOS:  cpu time    0.0010: real time    0.0010
    CHARGE:  cpu time    0.1522: real time    0.1526
    MIXING:  cpu time    0.0013: real time    0.0013
    --------------------------------------------
      LOOP:  cpu time    2.9358: real time    2.9425

 eigenvalue-minimisations  :  2600
 total energy-change (2. order) :-0.1840717E+00  (-0.8799808E-03)
 number of electron     102.0000002 magnetization 
 augmentation part        8.4676874 magnetization 

 Broyden mixing:
  rms(total) = 0.79736E+00    rms(broyden)= 0.79697E+00
  rms(prec ) = 0.10238E+01
  weight for this iteration     100.00

 eigenvalues of (default mixing * dielectric matrix)
  average eigenvalue GAMMA=   0.6682
  2.5158  0.8221  0.8221  0.6460  0.6460  0.3427  0.3427  0.1198  0.2126  0.2126

 Free energy of the ion-electron system (eV)
  ---------------------------------------------------
  alpha Z        PSCENC =       167.69535705
  Ewald energy   TEWEN  =     34803.53380525
  -Hartree energ DENC   =    -40727.25963561
  -exchange      EXHF   =         0.00000000
  -V(xc)+E(xc)   XCENC  =      -201.86235176
  PAW double counting   =      6917.81800982    -6322.17813418
  entropy T*S    EENTRO =        -0.01985367
  eigenvalues    EBANDS =      -678.65201822
  atomic energy  EATOM  =      5896.86004693
  Solvation  Ediel_sol  =         0.00000000
  ---------------------------------------------------
  free energy    TOTEN  =      -144.06477439 eV

  energy without entropy =     -144.04492072  energy(sigma->0) =     -144.05484755


--------------------------------------------------------------------------------------------------------




--------------------------------------- Iteration      1(  19)  ---------------------------------------


    POTLOK:  cpu time    0.0135: real time    0.0136
    SETDIJ:  cpu time    0.0033: real time    0.0033
    EDDIAG:  cpu time    0.5276: real time    0.5282
  RMM-DIIS:  cpu time    2.2214: real time    2.2253
    ORTHCH:  cpu time    0.0433: real time    0.0434
       DOS:  cpu time    0.0009: real time    0.0009
    CHARGE:  cpu time    0.1343: real time    0.1345
    MIXING:  cpu time    0.0013: real time    0.0013
    --------------------------------------------
      LOOP:  cpu time    2.9456: real time    2.9505

 eigenvalue-minimisations  :  2601
 total energy-change (2. order) : 0.1896190E+00  (-0.1619513E-03)
 number of electron     102.0000005 magnetization 
 augmentation part        8.4570312 magnetization 

 Broyden mixing:
  rms(total) = 0.44403E+00    rms(broyden)= 0.44364E+00
  rms(prec ) = 0.56064E+00
  weight for this iteration     100.00

 eigenvalues of (default mixing * dielectric matrix)
  average eigenvalue GAMMA=   0.7163
  2.5276  0.9920  0.9261  0.9261  0.7243  0.7243  0.3809  0.2367  0.2367  0.1199
  0.0843

 Free energy of the ion-electron system (eV)
  ---------------------------------------------------
  alpha Z        PSCENC =       167.69535705
  Ewald energy   TEWEN  =     34803.53380525
  -Hartree energ DENC   =    -40727.54085325
  -exchange      EXHF   =         0.00000000
  -V(xc)+E(xc)   XCENC  =      -201.85762475
  PAW double counting   =      6916.94363801    -6321.30603321
  entropy T*S    EENTRO =        -0.01477678
  eigenvalues    EBANDS =      -678.18871461
  atomic energy  EATOM  =      5896.86004693
  Solvation  Ediel_sol  =         0.00000000
  ---------------------------------------------------
  free energy    TOTEN  =      -143.87515537 eV

  energy without entropy =     -143.86037859  energy(sigma->0) =     -143.86776698


--------------------------------------------------------------------------------------------------------




--------------------------------------- Iteration      1(  20)  ---------------------------------------


    POTLOK:  cpu time    0.0134: real time    0.0135
    SETDIJ:  cpu time    0.0032: real time    0.0032
    EDDIAG:  cpu time    0.5536: real time    0.5550
  RMM-DIIS:  cpu time    2.1465: real time    2.1505
    ORTHCH:  cpu time    0.0489: real time    0.0489
       DOS:  cpu time    0.0010: real time    0.0010
    CHARGE:  cpu time    0.1346: real time    0.1347
    MIXING:  cpu time    0.0014: real time    0.0014
    --------------------------------------------
      LOOP:  cpu time    2.9025: real time    2.9082

 eigenvalue-minimisations  :  2600
 total energy-change (2. order) :-0.3412717E-03  (-0.5051446E-03)
 number of electron     102.0000004 magnetization 
 augmentation part        8.4582798 magnetization 

 Broyden mixing:
  rms(total) = 0.45074E+00    rms(broyden)= 0.45073E+00
  rms(prec ) = 0.58085E+00
  weight for this iteration     100.00

 eigenvalues of (default mixing * dielectric matrix)
  average eigenvalue GAMMA=   0.8518
  2.4845  1.7980  1.7980  0.9769  0.7001  0.7001  0.7063  0.3835  0.2355  0.2355
  0.1199  0.0837

 Free energy of the ion-electron system (eV)
  ---------------------------------------------------
  alpha Z        PSCENC =       167.69535705
  Ewald energy   TEWEN  =     34803.53380525
  -Hartree energ DENC   =    -40728.46423820
  -exchange      EXHF   =         0.00000000
  -V(xc)+E(xc)   XCENC  =      -201.84183568
  PAW double counting   =      6910.32590410    -6314.69374997
  entropy T*S    EENTRO =        -0.01815209
  eigenvalues    EBANDS =      -677.27263403
  atomic energy  EATOM  =      5896.86004693
  Solvation  Ediel_sol  =         0.00000000
  ---------------------------------------------------
  free energy    TOTEN  =      -143.87549664 eV

  energy without entropy =     -143.85734455  energy(sigma->0) =     -143.86642060


--------------------------------------------------------------------------------------------------------




--------------------------------------- Iteration      1(  21)  ---------------------------------------


    POTLOK:  cpu time    0.0133: real time    0.0134
    SETDIJ:  cpu time    0.0032: real time    0.0032
    EDDIAG:  cpu time    0.4660: real time    0.4667
  RMM-DIIS:  cpu time    2.1947: real time    2.1990
    ORTHCH:  cpu time    0.0426: real time    0.0426
       DOS:  cpu time    0.0009: real time    0.0009
    CHARGE:  cpu time    0.1304: real time    0.1305
    MIXING:  cpu time    0.0013: real time    0.0013
    --------------------------------------------
      LOOP:  cpu time    2.8523: real time    2.8575

 eigenvalue-minimisations  :  2600
 total energy-change (2. order) : 0.6558793E-01  (-0.7916587E-03)
 number of electron     102.0000006 magnetization 
 augmentation part        8.4571794 magnetization 

 Broyden mixing:
  rms(total) = 0.20807E+00    rms(broyden)= 0.20777E+00
  rms(prec ) = 0.26176E+00
  weight for this iteration     100.00

 eigenvalues of (default mixing * dielectric matrix)
  average eigenvalue GAMMA=   0.8107
  2.4740  1.6621  1.6621  0.9859  0.7574  0.7127  0.7127  0.5169  0.3806  0.2357
  0.2357  0.1199  0.0837

 Free energy of the ion-electron system (eV)
  ---------------------------------------------------
  alpha Z        PSCENC =       167.69535705
  Ewald energy   TEWEN  =     34803.53380525
  -Hartree energ DENC   =    -40728.29786847
  -exchange      EXHF   =         0.00000000
  -V(xc)+E(xc)   XCENC  =      -201.85802843
  PAW double counting   =      6904.68140239    -6309.04572780
  entropy T*S    EENTRO =        -0.01598195
  eigenvalues    EBANDS =      -677.36291367
  atomic energy  EATOM  =      5896.86004693
  Solvation  Ediel_sol  =         0.00000000
  ---------------------------------------------------
  free energy    TOTEN  =      -143.80990871 eV

  energy without entropy =     -143.79392676  energy(sigma->0) =     -143.80191773


--------------------------------------------------------------------------------------------------------




--------------------------------------- Iteration      1(  22)  ---------------------------------------


    POTLOK:  cpu time    0.0116: real time    0.0117
    SETDIJ:  cpu time    0.0031: real time    0.0031
    EDDIAG:  cpu time    0.5014: real time    0.5027
  RMM-DIIS:  cpu time    2.1715: real time    2.1757
    ORTHCH:  cpu time    0.0469: real time    0.0470
       DOS:  cpu time    0.0009: real time    0.0009
    CHARGE:  cpu time    0.1317: real time    0.1319
    MIXING:  cpu time    0.0013: real time    0.0013
    --------------------------------------------
      LOOP:  cpu time    2.8684: real time    2.8743

 eigenvalue-minimisations  :  2457
 total energy-change (2. order) : 0.6544210E-02  (-0.8803837E-04)
 number of electron     102.0000006 magnetization 
 augmentation part        8.4572560 magnetization 

 Broyden mixing:
  rms(total) = 0.17981E+00    rms(broyden)= 0.17977E+00
  rms(prec ) = 0.22400E+00
  weight for this iteration     100.00

 eigenvalues of (default mixing * dielectric matrix)
  average eigenvalue GAMMA=   0.9171
  2.0943  2.4511  1.7716  1.7716  0.9952  0.7105  0.7105  0.6412  0.6412  0.3780
  0.2356  0.2356  0.1199  0.0837

 Free energy of the ion-electron system (eV)
  ---------------------------------------------------
  alpha Z        PSCENC =       167.69535705
  Ewald energy   TEWEN  =     34803.53380525
  -Hartree energ DENC   =    -40728.11316849
  -exchange      EXHF   =         0.00000000
  -V(xc)+E(xc)   XCENC  =      -201.85845967
  PAW double counting   =      6904.87852837    -6309.24205133
  entropy T*S    EENTRO =        -0.01537642
  eigenvalues    EBANDS =      -677.54204618
  atomic energy  EATOM  =      5896.86004693
  Solvation  Ediel_sol  =         0.00000000
  ---------------------------------------------------
  free energy    TOTEN  =      -143.80336450 eV

  energy without entropy =     -143.78798807  energy(sigma->0) =     -143.79567629


--------------------------------------------------------------------------------------------------------




--------------------------------------- Iteration      1(  23)  ---------------------------------------


    POTLOK:  cpu time    0.0127: real time    0.0128
    SETDIJ:  cpu time    0.0032: real time    0.0032
    EDDIAG:  cpu time    0.4765: real time    0.4778
  RMM-DIIS:  cpu time    1.6952: real time    1.6989
    ORTHCH:  cpu time    0.0468: real time    0.0468
       DOS:  cpu time    0.0009: real time    0.0009
    CHARGE:  cpu time    0.1317: real time    0.1318
    MIXING:  cpu time    0.0016: real time    0.0016
    --------------------------------------------
      LOOP:  cpu time    2.3685: real time    2.3739

 eigenvalue-minimisations  :  1915
 total energy-change (2. order) : 0.7133484E-03  (-0.7790447E-05)
 number of electron     102.0000006 magnetization 
 augmentation part        8.4573188 magnetization 

 Broyden mixing:
  rms(total) = 0.18118E+00    rms(broyden)= 0.18118E+00
  rms(prec ) = 0.22702E+00
  weight for this iteration     100.00

 eigenvalues of (default mixing * dielectric matrix)
  average eigenvalue GAMMA=   0.9659
  2.4397  1.6121  1.6121  1.8228  1.8228  0.9937  0.8427  0.8427  0.7230  0.7230
  0.3791  0.2356  0.2356  0.1199  0.0837

 Free energy of the ion-electron system (eV)
  ---------------------------------------------------
  alpha Z        PSCENC =       167.69535705
  Ewald energy   TEWEN  =     34803.53380525
  -Hartree energ DENC   =    -40728.06106105
  -exchange      EXHF   =         0.00000000
  -V(xc)+E(xc)   XCENC  =      -201.85747975
  PAW double counting   =      6904.92598312    -6309.28958616
  entropy T*S    EENTRO =        -0.01559721
  eigenvalues    EBANDS =      -677.59411933
  atomic energy  EATOM  =      5896.86004693
  Solvation  Ediel_sol  =         0.00000000
  ---------------------------------------------------
  free energy    TOTEN  =      -143.80265115 eV

  energy without entropy =     -143.78705394  energy(sigma->0) =     -143.79485254


--------------------------------------------------------------------------------------------------------




--------------------------------------- Iteration      1(  24)  ---------------------------------------


    POTLOK:  cpu time    0.0121: real time    0.0122
    SETDIJ:  cpu time    0.0031: real time    0.0031
    EDDIAG:  cpu time    0.5062: real time    0.5078
  RMM-DIIS:  cpu time    2.2431: real time    2.2485
    ORTHCH:  cpu time    0.0463: real time    0.0463
       DOS:  cpu time    0.0010: real time    0.0010
    CHARGE:  cpu time    0.1319: real time    0.1320
    MIXING:  cpu time    0.0017: real time    0.0017
    --------------------------------------------
      LOOP:  cpu time    2.9453: real time    2.9525

 eigenvalue-minimisations  :  2600
 total energy-change (2. order) : 0.1211072E-01  (-0.6310729E-03)
 number of electron     102.0000006 magnetization 
 augmentation part        8.4560839 magnetization 

 Broyden mixing:
  rms(total) = 0.12830E+00    rms(broyden)= 0.12818E+00
  rms(prec ) = 0.15460E+00
  weight for this iteration     100.00

 eigenvalues of (default mixing * dielectric matrix)
  average eigenvalue GAMMA=   0.9505
  2.5583  2.2099  1.7683  1.7683  1.0512  1.0512  0.9100  0.9100  0.7071  0.7071
  0.5126  0.3797  0.2356  0.2356  0.1199  0.0837

 Free energy of the ion-electron system (eV)
  ---------------------------------------------------
  alpha Z        PSCENC =       167.69535705
  Ewald energy   TEWEN  =     34803.53380525
  -Hartree energ DENC   =    -40726.19045968
  -exchange      EXHF   =         0.00000000
  -V(xc)+E(xc)   XCENC  =      -201.84213315
  PAW double counting   =      6902.30267532    -6306.66863894
  entropy T*S    EENTRO =        -0.01549253
  eigenvalues    EBANDS =      -679.46570068
  atomic energy  EATOM  =      5896.86004693
  Solvation  Ediel_sol  =         0.00000000
  ---------------------------------------------------
  free energy    TOTEN  =      -143.79054043 eV

  energy without entropy =     -143.77504790  energy(sigma->0) =     -143.78279417


--------------------------------------------------------------------------------------------------------




--------------------------------------- Iteration      1(  25)  ---------------------------------------


    POTLOK:  cpu time    0.0120: real time    0.0121
    SETDIJ:  cpu time    0.0031: real time    0.0031
    EDDIAG:  cpu time    0.5042: real time    0.5050
  RMM-DIIS:  cpu time    2.1774: real time    2.1815
    ORTHCH:  cpu time    0.0463: real time    0.0464
       DOS:  cpu time    0.0010: real time    0.0010
    CHARGE:  cpu time    0.1467: real time    0.1473
    MIXING:  cpu time    0.0017: real time    0.0017
    --------------------------------------------
      LOOP:  cpu time    2.8924: real time    2.8981

 eigenvalue-minimisations  :  2518
 total energy-change (2. order) :-0.2137002E-01  (-0.1009046E-03)
 number of electron     102.0000005 magnetization 
 augmentation part        8.4578146 magnetization 

 Broyden mixing:
  rms(total) = 0.30448E+00    rms(broyden)= 0.30436E+00
  rms(prec ) = 0.38983E+00
  weight for this iteration     100.00

 eigenvalues of (default mixing * dielectric matrix)
  average eigenvalue GAMMA=   0.9234
  2.5930  2.2388  1.6030  1.6030  1.1228  1.1228  0.9495  0.9495  0.7028  0.7028
  0.5282  0.5282  0.3792  0.2356  0.2356  0.1199  0.0837

 Free energy of the ion-electron system (eV)
  ---------------------------------------------------
  alpha Z        PSCENC =       167.69535705
  Ewald energy   TEWEN  =     34803.53380525
  -Hartree energ DENC   =    -40727.82104023
  -exchange      EXHF   =         0.00000000
  -V(xc)+E(xc)   XCENC  =      -201.82615834
  PAW double counting   =      6899.38009248    -6303.75256811
  entropy T*S    EENTRO =        -0.01809579
  eigenvalues    EBANDS =      -677.86334969
  atomic energy  EATOM  =      5896.86004693
  Solvation  Ediel_sol  =         0.00000000
  ---------------------------------------------------
  free energy    TOTEN  =      -143.81191045 eV

  energy without entropy =     -143.79381466  energy(sigma->0) =     -143.80286256


--------------------------------------------------------------------------------------------------------




--------------------------------------- Iteration      1(  26)  ---------------------------------------


    POTLOK:  cpu time    0.0128: real time    0.0129
    SETDIJ:  cpu time    0.0032: real time    0.0032
    EDDIAG:  cpu time    0.4720: real time    0.4729
  RMM-DIIS:  cpu time    1.8984: real time    1.9017
    ORTHCH:  cpu time    0.0851: real time    0.0852
       DOS:  cpu time    0.0010: real time    0.0009
    CHARGE:  cpu time    0.2470: real time    0.2473
    MIXING:  cpu time    0.0033: real time    0.0033
[...]
     13     -16.1390      2.00000
     14      -4.8991      2.00000
     15      -4.8689      2.00000
     16      -4.8017      2.00000
     17      -4.7555      2.00000
     18      -4.6679      2.00000
     19      -4.6012      2.00000
     20      -4.5090      2.00000
     21      -4.4005      2.00000
     22      -4.2764      2.00000
     23      -4.1466      2.00000
     24      -4.0842      2.00000
     25      -3.9536      2.00000
     26      -3.7898      2.00000
     27      -3.5115      2.00000
     28      -3.2075      2.00000
     29      -2.9147      2.00000
     30      -2.6504      2.00000
     31      -2.4203      2.00000
     32      -2.3563      2.00000
     33      -2.3041      2.00000
     34      -2.2445      2.00000
     35      -2.2343      2.00000
     36      -2.1692      2.00000
     37      -2.1074      2.00000
     38      -2.0839      2.00000
     39      -1.9957      2.00000
     40      -1.9725      2.00000
     41      -1.9078      2.00000
     42      -1.8453      2.00000
     43      -1.8247      2.00000
     44      -1.7619      2.00000
     45      -1.7582      2.00000
     46      -1.7146      2.00000
     47      -1.6818      2.00000
     48      -1.6505      2.00000
     49      -0.9095      1.98478
     50      -0.9042      1.97717
     51      -0.8749      1.85268
     52      -0.7508      0.03930
     53       6.1520      0.00000
     54       6.3594      0.00000
     55       6.6433      0.00000
     56       6.9669      0.00000
     57       7.3053      0.00000
     58       7.6552      0.00000
     59       8.0111      0.00000
     60       8.3137      0.00000
     61       8.5022      0.00000
     62       8.6776      0.00000
     63       8.8234      0.00000
     64       8.8447      0.00000
     65       9.0913      0.00000

 k-point    19 :       0.4375    0.4375    0.0000
  band No.  band energies     occupation 
      1     -17.1224      2.00000
      2     -17.0923      2.00000
      3     -17.0662      2.00000
      4     -17.0398      2.00000
      5     -17.0087      2.00000
      6     -16.9764      2.00000
      7     -16.9465      2.00000
      8     -16.9186      2.00000
      9     -16.8908      2.00000
     10     -16.8850      2.00000
     11     -16.7917      2.00000
     12     -16.0967      2.00000
     13     -15.9594      2.00000
     14      -5.5582      2.00000
     15      -5.4531      2.00000
     16      -5.3068      2.00000
     17      -5.1289      2.00000
     18      -5.0533      2.00000
     19      -4.9732      2.00000
     20      -4.9508      2.00000
     21      -4.8751      2.00000
     22      -4.8180      2.00000
     23      -4.7917      2.00000
     24      -4.6455      2.00000
     25      -3.5744      2.00000
     26      -3.4715      2.00000
     27      -3.2377      2.00000
     28      -3.2145      2.00000
     29      -3.0617      2.00000
     30      -3.0278      2.00000
     31      -2.9841      2.00000
     32      -2.9179      2.00000
     33      -2.8606      2.00000
     34      -2.7801      2.00000
     35      -2.6508      2.00000
     36      -2.5994      2.00000
     37      -2.5818      2.00000
     38      -2.5391      2.00000
     39      -2.4543      2.00000
     40      -2.4201      2.00000
     41      -2.3219      2.00000
     42      -2.3008      2.00000
     43      -2.1930      2.00000
     44      -2.0890      2.00000
     45      -2.0353      2.00000
     46      -1.9833      2.00000
     47      -1.9369      2.00000
     48      -1.9265      2.00000
     49      -1.2627      2.00000
     50      -1.1457      2.00000
     51      -0.9108      1.98627
     52      -0.8901      1.93947
     53       7.1041      0.00000
     54       7.3376      0.00000
     55       7.6705      0.00000
     56       8.0620      0.00000
     57       8.2791      0.00000
     58       8.4583      0.00000
     59       8.5253      0.00000
     60       8.7887      0.00000
     61       8.8442      0.00000
     62       8.9839      0.00000
     63       9.0065      0.00000
     64       9.1123      0.00000
     65       9.2164      0.00000

 k-point    20 :      -0.4375    0.4375   -0.0000
  band No.  band energies     occupation 
      1     -17.2415      2.00000
      2     -17.2034      2.00000
      3     -17.1678      2.00000
      4     -17.1261      2.00000
      5     -17.0785      2.00000
      6     -17.0306      2.00000
      7     -16.9854      2.00000
      8     -16.9434      2.00000
      9     -16.9142      2.00000
     10     -16.8964      2.00000
     11     -16.8229      2.00000
     12     -16.1302      2.00000
     13     -15.9996      2.00000
     14      -5.6110      2.00000
     15      -5.5046      2.00000
     16      -5.3558      2.00000
     17      -5.1738      2.00000
     18      -5.1425      2.00000
     19      -5.0482      2.00000
     20      -4.9882      2.00000
     21      -4.9285      2.00000
     22      -4.8461      2.00000
     23      -4.8237      2.00000
     24      -4.6792      2.00000
     25      -3.6557      2.00000
     26      -3.5869      2.00000
     27      -3.3968      2.00000
     28      -3.1408      2.00000
     29      -2.8665      2.00000
     30      -2.7012      2.00000
     31      -2.6287      2.00000
     32      -2.5618      2.00000
     33      -2.5286      2.00000
     34      -2.4760      2.00000
     35      -2.4251      2.00000
     36      -2.4155      2.00000
     37      -2.3393      2.00000
     38      -2.2528      2.00000
     39      -2.2264      2.00000
     40      -2.1631      2.00000
     41      -2.0738      2.00000
     42      -2.0710      2.00000
     43      -1.9892      2.00000
     44      -1.9571      2.00000
     45      -1.9215      2.00000
     46      -1.8770      2.00000
     47      -1.8617      2.00000
     48      -1.8117      2.00000
     49      -1.0215      2.00000
     50      -0.9480      1.99956
     51      -0.9225      1.99479
     52      -0.8773      1.87069
     53       6.5566      0.00000
     54       6.8122      0.00000
     55       7.1674      0.00000
     56       7.5669      0.00000
     57       7.9463      0.00000
     58       8.0117      0.00000
     59       8.1854      0.00000
     60       8.2329      0.00000
     61       8.3584      0.00000
     62       8.4602      0.00000
     63       8.5173      0.00000
     64       8.6478      0.00000
     65       8.7694      0.00000


--------------------------------------------------------------------------------------------------------


 soft charge-density along one line, spin component           1
         0         1         2         3         4         5         6         7         8         9
 total charge-density along one line
 
 pseudopotential strength for first ion, spin component:           1
  2.999   9.610   0.001   0.001   0.001   0.001   0.001   0.001
  9.610  30.604   0.003   0.003   0.003   0.005   0.005   0.005
  0.001   0.003   7.066  -0.000  -0.000  10.449  -0.000  -0.000
  0.001   0.003  -0.000   7.066  -0.000  -0.000  10.449  -0.000
  0.001   0.003  -0.000  -0.000   7.066  -0.000  -0.000  10.449
  0.001   0.005  10.449  -0.000  -0.000  14.584  -0.000  -0.000
  0.001   0.005  -0.000  10.449  -0.000  -0.000  14.584  -0.000
  0.001   0.005  -0.000  -0.000  10.449  -0.000  -0.000  14.584
 -0.000  -0.000   0.002  -0.000   0.002   0.002  -0.000   0.002
 -0.000  -0.000   0.002   0.002  -0.000   0.002   0.002  -0.000
 -0.000  -0.000  -0.001   0.002  -0.001  -0.001   0.002  -0.001
 -0.000  -0.000  -0.000   0.002   0.002  -0.000   0.002   0.002
 -0.000  -0.000  -0.002   0.000   0.002  -0.002   0.000   0.002
 total augmentation occupancy for first ion, spin component:           1
  1.005  -0.046  -0.008  -0.008  -0.008   0.001   0.001   0.001  -0.002  -0.002   0.000  -0.002   0.000
 -0.046   0.002   0.000   0.000   0.000  -0.000  -0.000  -0.000   0.000   0.000  -0.000   0.000  -0.000
 -0.008   0.000   0.116  -0.001  -0.001  -0.012   0.000   0.000   0.001   0.001   0.002  -0.000   0.004
 -0.008   0.000  -0.001   0.116  -0.001   0.000  -0.012   0.000  -0.000   0.001  -0.005   0.001   0.000
 -0.008   0.000  -0.001  -0.001   0.116   0.000   0.000  -0.012   0.001  -0.000   0.002   0.001  -0.004
  0.001  -0.000  -0.012   0.000   0.000   0.001  -0.000  -0.000  -0.000  -0.000  -0.000   0.000  -0.000
  0.001  -0.000   0.000  -0.012   0.000  -0.000   0.001  -0.000   0.000  -0.000   0.001  -0.000  -0.000
  0.001  -0.000   0.000   0.000  -0.012  -0.000  -0.000   0.001  -0.000   0.000  -0.000  -0.000   0.000
 -0.002   0.000   0.001  -0.000   0.001  -0.000   0.000  -0.000   0.013  -0.000   0.000  -0.000   0.000
 -0.002   0.000   0.001   0.001  -0.000  -0.000  -0.000   0.000  -0.000   0.013  -0.000  -0.000   0.000
  0.000  -0.000   0.002  -0.005   0.002  -0.000   0.001  -0.000   0.000  -0.000   0.050  -0.000  -0.000
 -0.002   0.000  -0.000   0.001   0.001   0.000  -0.000  -0.000  -0.000  -0.000  -0.000   0.013  -0.000
  0.000  -0.000   0.004   0.000  -0.004  -0.000  -0.000   0.000   0.000   0.000  -0.000  -0.000   0.050


------------------------ aborting loop because EDIFF is reached ----------------------------------------


    CHARGE:  cpu time    0.1312: real time    0.1315
    FORLOC:  cpu time    0.0030: real time    0.0030
    FORNL :  cpu time    0.8884: real time    0.8931
    STRESS:  cpu time    2.6496: real time    2.6585
    FORCOR:  cpu time    0.0150: real time    0.0150
    FORHAR:  cpu time    0.0059: real time    0.0059
    MIXING:  cpu time    0.0007: real time    0.0007
    OFIELD:  cpu time    0.0000: real time    0.0000

  FORCE on cell =-STRESS in cart. coord.  units (eV):
  Direction    XX          YY          ZZ          XY          YZ          ZX
  --------------------------------------------------------------------------------------
  Alpha Z   167.69536   167.69536   167.69536
  Ewald   11759.63262 11759.60817 11759.60761-26550.50117-26550.51365-26550.50110
  Hartree 13738.49540 13738.47053 13738.47068-26250.81789-26250.83027-26250.81790
  E(xc)    -463.68138  -463.68143  -463.68138     0.03817     0.03815     0.03817
  Local  -26870.88113-26870.83062-26870.83141 52797.96431 52797.98956 52797.96523
  n-local  -238.05030  -244.88347  -251.49856    -2.48950     0.71172    -1.03907
  augment    87.50967    87.50969    87.50967     0.24681     0.24678     0.24682
  Kinetic  1808.00349  1825.01137  1841.20817    20.11908   -14.07110     3.55785
  Fock        0.00000     0.00000     0.00000     0.00000     0.00000     0.00000
  -------------------------------------------------------------------------------------
  Total      -1.29886    -1.29886    -1.29886    -0.80631    -0.80631    -0.80631
  in kB      -5.99074    -5.99074    -5.99074    -3.71895    -3.71894    -3.71894
  external pressure =       -5.99 kB  Pullay stress =        0.00 kB


 VOLUME and BASIS-vectors are now :
 -----------------------------------------------------------------------------
  energy-cutoff  :      450.00
  volume of cell :      347.37
      direct lattice vectors                 reciprocal lattice vectors
     2.124436000 -2.124435000  0.000000000     0.313808828 -0.156904414 -0.156904414
     0.000000000  2.124436000 -2.124436000     0.156904340  0.156904414 -0.313808754
    25.655738000 25.655738000 25.655738000     0.012992541  0.012992547  0.012992547

  length of vectors
     3.004405496  3.004406204 44.437041722     0.384335753  0.384335662  0.022503748


 FORCES acting on ions
    electron-ion (+dipol)            ewald-force                    non-local-force                 convergence-correction
 -----------------------------------------------------------------------------------------------
   0.285E+03 0.285E+03 0.285E+03   -.285E+03 -.285E+03 -.285E+03   0.284E+00 0.284E+00 0.284E+00   0.485E-02 0.485E-02 0.485E-02
   0.221E+03 0.221E+03 0.221E+03   -.221E+03 -.221E+03 -.221E+03   0.586E-01 0.586E-01 0.586E-01   0.528E-02 0.528E-02 0.528E-02
   0.941E+02 0.941E+02 0.941E+02   -.941E+02 -.941E+02 -.941E+02   0.352E-02 0.352E-02 0.352E-02   0.494E-02 0.494E-02 0.494E-02
   0.308E+02 0.308E+02 0.308E+02   -.308E+02 -.308E+02 -.308E+02   0.719E-02 0.719E-02 0.719E-02   0.458E-02 0.458E-02 0.458E-02
   -.959E+02 -.959E+02 -.959E+02   0.959E+02 0.959E+02 0.959E+02   0.150E-02 0.150E-02 0.150E-02   0.453E-02 0.453E-02 0.453E-02
   -.159E+03 -.159E+03 -.159E+03   0.159E+03 0.159E+03 0.159E+03   0.558E-02 0.558E-02 0.558E-02   0.445E-02 0.445E-02 0.445E-02
   -.286E+03 -.286E+03 -.286E+03   0.286E+03 0.286E+03 0.286E+03   -.130E-01 -.130E-01 -.130E-01   0.440E-02 0.440E-02 0.440E-02
   -.349E+03 -.349E+03 -.349E+03   0.349E+03 0.349E+03 0.349E+03   0.132E+00 0.132E+00 0.132E+00   0.221E-02 0.221E-02 0.221E-02
   0.352E+03 0.352E+03 0.352E+03   -.354E+03 -.354E+03 -.354E+03   0.127E+01 0.127E+01 0.127E+01   0.365E-04 0.366E-04 0.365E-04
   0.157E+03 0.157E+03 0.157E+03   -.157E+03 -.157E+03 -.157E+03   0.159E-01 0.159E-01 0.159E-01   0.539E-02 0.539E-02 0.539E-02
   -.326E+02 -.326E+02 -.326E+02   0.326E+02 0.326E+02 0.326E+02   -.187E-02 -.187E-02 -.187E-02   0.448E-02 0.448E-02 0.448E-02
   -.223E+03 -.223E+03 -.223E+03   0.223E+03 0.223E+03 0.223E+03   -.295E-02 -.295E-02 -.295E-02   0.449E-02 0.449E-02 0.449E-02
   0.115E+04 0.115E+04 0.115E+04   -.116E+04 -.116E+04 -.116E+04   0.860E+01 0.860E+01 0.860E+01   -.302E-02 -.302E-02 -.302E-02
   0.567E+03 0.567E+03 0.567E+03   -.567E+03 -.567E+03 -.567E+03   0.520E-01 0.520E-01 0.520E-01   0.159E-01 0.159E-01 0.159E-01
   -.271E+01 -.271E+01 -.271E+01   0.268E+01 0.268E+01 0.268E+01   0.204E-01 0.204E-01 0.204E-01   0.133E-01 0.133E-01 0.133E-01
   -.573E+03 -.573E+03 -.573E+03   0.573E+03 0.573E+03 0.573E+03   0.216E-02 0.216E-02 0.216E-02   0.132E-01 0.132E-01 0.132E-01
   -.112E+04 -.112E+04 -.112E+04   0.113E+04 0.113E+04 0.113E+04   -.113E+02 -.113E+02 -.113E+02   -.874E-02 -.874E-02 -.874E-02
   0.758E+03 0.758E+03 0.758E+03   -.758E+03 -.758E+03 -.758E+03   0.256E+00 0.256E+00 0.256E+00   0.154E-01 0.154E-01 0.154E-01
   0.187E+03 0.187E+03 0.187E+03   -.187E+03 -.187E+03 -.187E+03   0.289E-01 0.289E-01 0.289E-01   0.139E-01 0.139E-01 0.139E-01
   -.383E+03 -.383E+03 -.383E+03   0.383E+03 0.383E+03 0.383E+03   0.185E-01 0.185E-01 0.185E-01   0.134E-01 0.134E-01 0.134E-01
   -.952E+03 -.952E+03 -.952E+03   0.953E+03 0.953E+03 0.953E+03   -.706E+00 -.706E+00 -.706E+00   0.123E-01 0.123E-01 0.123E-01
   0.952E+03 0.952E+03 0.952E+03   -.953E+03 -.953E+03 -.953E+03   0.121E+01 0.121E+01 0.121E+01   0.117E-01 0.117E-01 0.117E-01
   0.377E+03 0.377E+03 0.377E+03   -.377E+03 -.377E+03 -.377E+03   0.170E-01 0.170E-01 0.170E-01   0.161E-01 0.161E-01 0.161E-01
   -.193E+03 -.193E+03 -.193E+03   0.193E+03 0.193E+03 0.193E+03   0.164E-01 0.164E-01 0.164E-01   0.134E-01 0.134E-01 0.134E-01
   -.763E+03 -.763E+03 -.763E+03   0.763E+03 0.763E+03 0.763E+03   -.840E-01 -.840E-01 -.840E-01   0.135E-01 0.135E-01 0.135E-01
 -----------------------------------------------------------------------------------------------
   -.332E-01 -.333E-01 -.332E-01   0.568E-12 -.227E-12 0.000E+00   -.153E+00 -.153E+00 -.153E+00   0.190E+00 0.190E+00 0.190E+00
 
 
 POSITION                                       TOTAL-FORCE (eV/Angst)
 -----------------------------------------------------------------------------------
      2.69254      2.69254      2.69254        -0.001578     -0.001578     -0.001578
      4.82458      4.82459      2.70015        -0.002424     -0.002424     -0.002424
      6.95065      6.95065      6.95065        -0.007529     -0.007529     -0.007529
      9.07510      9.07510      6.95066        -0.001380     -0.001380     -0.001380
     11.19952     11.19952     11.19952        -0.005618     -0.005618     -0.005618
     13.32397     13.32397     11.19953         0.001084      0.001084      0.001084
     15.44840     15.44840     15.44840         0.046397      0.046397      0.046397
     17.57284     17.57284     15.44841         0.634011      0.634011      0.634011
      2.65459      0.53016      0.53016        -0.000983     -0.000983     -0.000983
      6.94990      4.82547      4.82547         0.003230      0.003230      0.003230
     11.19952      9.07508      9.07508        -0.009465     -0.009465     -0.009465
     15.44839     13.32395     13.32395         0.005729      0.005729      0.005729
      0.70706      0.70706      0.70706         0.003964      0.003964      0.003964
      4.82717      4.82717      4.82717        -0.003186     -0.003186     -0.003186
      9.07510      9.07510      9.07510         0.006020      0.006020      0.006020
     13.32397     13.32397     13.32397         0.002743      0.002743      0.002743
     17.57285     17.57285     17.57285        -0.488793     -0.488793     -0.488793
      4.83098      2.70655      2.70655        -0.002325     -0.002325     -0.002325
      9.07509      6.95066      6.95066         0.011799      0.011799      0.011799
     13.32397     11.19953     11.19953         0.007411      0.007411      0.007411
     17.57284     15.44840     15.44840        -0.168689     -0.168689     -0.168689
      2.72876      2.72876      0.60432        -0.004626     -0.004626     -0.004626
      6.95091      6.95091      4.82647        -0.001133     -0.001133     -0.001133
     11.19952     11.19952      9.07508         0.002706      0.002706      0.002706
     15.44839     15.44839     13.32396        -0.027365     -0.027365     -0.027365
 -----------------------------------------------------------------------------------
    total drift:                                0.003926      0.003900      0.003927


--------------------------------------------------------------------------------------------------------



  FREE ENERGIE OF THE ION-ELECTRON SYSTEM (eV)
  ---------------------------------------------------
  free  energy   TOTEN  =      -143.94293078 eV

  energy  without entropy=     -143.91908694  energy(sigma->0) =     -143.93100886
 
 d Force = 0.1247937E-05[ 0.217E-06, 0.228E-05]  d Energy = 0.2526240E-06 0.995E-06
 d Force = 0.2554994E+00[ 0.255E+00, 0.256E+00]  d Ewald  = 0.2554994E+00-0.131E-09


--------------------------------------------------------------------------------------------------------


    POTLOK:  cpu time    0.0156: real time    0.0157


--------------------------------------------------------------------------------------------------------


 stress matrix after NEB project (eV)
     -1.29886     -0.80631     -0.80631
     -0.80631     -1.29886     -0.80631
     -0.80631     -0.80631     -1.29886
  FORCES: max atom, RMS     0.008013    0.002974
  FORCE total and by dimension    0.014872    0.004626
  Stress total and by dimension    2.993651    1.298862


--------------------------------------------------------------------------------------------------------


  
 reached required accuracy - stopping structural energy minimisation
     LOOP+:  cpu time   37.5616: real time   37.8140
    4ORBIT:  cpu time    0.0000: real time    0.0000

 total amount of memory used by VASP MPI-rank0    47396. kBytes
=======================================================================

   base      :      30000. kBytes
   nonlr-proj:       3126. kBytes
   fftplans  :       2449. kBytes
   grid      :       3570. kBytes
   one-center:         56. kBytes
   wavefun   :       8195. kBytes
 
  
  
 General timing and accounting informations for this job:
 ========================================================
  
                  Total CPU time used (sec):     2155.005
                            User time (sec):     2149.814
                          System time (sec):        5.190
                         Elapsed time (sec):     2166.595
  
                   Maximum memory used (kb):      102952.
                   Average memory used (kb):           0.
  
                          Minor page faults:       184230
                          Major page faults:            0
                 Voluntary context switches:         4038
