       N       E                     dE             d eps       ncg     rms          rms(c)
DAV:   1     0.554292728668E+03    0.55429E+03   -0.48462E+04  2864   0.138E+03
DAV:   2    -0.109174105720E+03   -0.66347E+03   -0.63223E+03  3664   0.266E+02
DAV:   3    -0.168067725718E+03   -0.58894E+02   -0.58538E+02  3312   0.866E+01
DAV:   4    -0.168822604353E+03   -0.75488E+00   -0.75362E+00  3328   0.106E+01
DAV:   5    -0.168833989643E+03   -0.11385E-01   -0.11379E-01  3376   0.126E+00    0.239E+01
DAV:   6    -0.152067008255E+03    0.16767E+02   -0.97604E+01  3352   0.329E+01    0.828E+00
DAV:   7    -0.151918090911E+03    0.14892E+00   -0.25759E+00  3216   0.640E+00    0.500E+00
DAV:   8    -0.151835461299E+03    0.82630E-01   -0.89217E-01  3320   0.480E+00    0.133E+00
DAV:   9    -0.151792798603E+03    0.42663E-01   -0.17862E-01  3180   0.182E+00    0.628E-01
DAV:  10    -0.151797295075E+03   -0.44965E-02   -0.12677E-01  3192   0.149E+00    0.479E-01
DAV:  11    -0.151793145439E+03    0.41496E-02   -0.16531E-02  3504   0.612E-01    0.272E-01
DAV:  12    -0.151793119083E+03    0.26355E-04   -0.17210E-02  3280   0.541E-01    0.166E-01
DAV:  13    -0.151792571372E+03    0.54771E-03   -0.17142E-03  4076   0.292E-01    0.949E-02
DAV:  14    -0.151792359457E+03    0.21192E-03   -0.12954E-03  3504   0.184E-01    0.270E-02
DAV:  15    -0.151792105696E+03    0.25376E-03   -0.21710E-04  3964   0.156E-01    0.291E-02
DAV:  16    -0.151791915643E+03    0.19005E-03   -0.23473E-04  4120   0.168E-01    0.227E-02
DAV:  17    -0.151791819667E+03    0.95976E-04   -0.29036E-04  3804   0.144E-01    0.144E-02
DAV:  18    -0.151791716541E+03    0.10313E-03   -0.15781E-04  4428   0.190E-01    0.166E-02
DAV:  19    -0.151791679328E+03    0.37214E-04   -0.13295E-04  3408   0.117E-01    0.174E-02
DAV:  20    -0.151791636839E+03    0.42489E-04   -0.22040E-04  4436   0.169E-01    0.204E-02
DAV:  21    -0.151791632540E+03    0.42994E-05   -0.14159E-04  3300   0.971E-02    0.313E-02
DAV:  22    -0.151791593326E+03    0.39214E-04   -0.47257E-05  3008   0.943E-02    0.153E-02
DAV:  23    -0.151791581228E+03    0.12098E-04   -0.44813E-05  3184   0.116E-01    0.631E-03
DAV:  24    -0.151791592602E+03   -0.11374E-04   -0.10173E-04  2996   0.471E-02    0.107E-02
DAV:  25    -0.151791591600E+03    0.10018E-05   -0.78300E-06  1756   0.134E-02
   1 F= -.15179159E+03 E0= -.15178926E+03  d E =-.151792E+03
       N       E                     dE             d eps       ncg     rms          rms(c)
DAV:   1    -0.151793005380E+03   -0.14128E-02   -0.22824E-02  2904   0.652E-01    0.506E-02
DAV:   2    -0.151793011132E+03   -0.57523E-05   -0.17909E-03  3312   0.195E-01    0.429E-02
DAV:   3    -0.151792993278E+03    0.17854E-04   -0.21341E-04  3252   0.618E-02    0.336E-02
DAV:   4    -0.151792976303E+03    0.16975E-04   -0.73702E-05  3060   0.339E-02    0.148E-02
DAV:   5    -0.151792966599E+03    0.97035E-05   -0.52920E-05  3188   0.337E-02    0.123E-02
DAV:   6    -0.151792966238E+03    0.36075E-06   -0.11437E-05  2068   0.196E-02
   2 F= -.15179297E+03 E0= -.15179047E+03  d E =-.137464E-02
       N       E                     dE             d eps       ncg     rms          rms(c)
DAV:   1    -0.151793228097E+03   -0.26150E-03   -0.95554E-03  2888   0.427E-01    0.341E-02
DAV:   2    -0.151793243580E+03   -0.15483E-04   -0.86078E-04  3288   0.133E-01    0.303E-02
DAV:   3    -0.151793234012E+03    0.95678E-05   -0.86659E-05  3184   0.415E-02    0.230E-02
DAV:   4    -0.151793226003E+03    0.80095E-05   -0.40991E-05  2860   0.257E-02    0.909E-03
DAV:   5    -0.151793223043E+03    0.29600E-05   -0.22896E-05  2608   0.246E-02    0.925E-03
DAV:   6    -0.151793222979E+03    0.63654E-07   -0.62531E-06  1680   0.146E-02
   3 F= -.15179322E+03 E0= -.15179061E+03  d E =-.163138E-02
       N       E                     dE             d eps       ncg     rms          rms(c)
DAV:   1    -0.151793974111E+03   -0.75107E-03   -0.91700E-02  2864   0.130E+00    0.440E-02
DAV:   2    -0.151794180095E+03   -0.20598E-03   -0.25018E-03  3264   0.187E-01    0.271E-02
DAV:   3    -0.151794165064E+03    0.15031E-04   -0.29873E-05  2648   0.314E-02    0.192E-02
DAV:   4    -0.151794152537E+03    0.12528E-04   -0.50155E-05  2932   0.389E-02    0.792E-03
DAV:   5    -0.151794151066E+03    0.14705E-05   -0.15794E-05  2068   0.209E-02    0.694E-03
DAV:   6    -0.151794148874E+03    0.21918E-05   -0.96340E-06  1948   0.194E-02
   4 F= -.15179415E+03 E0= -.15179146E+03  d E =-.925895E-03
       N       E                     dE             d eps       ncg     rms          rms(c)
DAV:   1    -0.151793686902E+03    0.46416E-03   -0.82540E-01  2856   0.389E+00    0.132E-01
DAV:   2    -0.151795539221E+03   -0.18523E-02   -0.22730E-02  3260   0.563E-01    0.821E-02
DAV:   3    -0.151795394580E+03    0.14464E-03   -0.30193E-04  3320   0.972E-02    0.575E-02
DAV:   4    -0.151795264038E+03    0.13054E-03   -0.37528E-04  3340   0.108E-01    0.239E-02
DAV:   5    -0.151795227688E+03    0.36350E-04   -0.13347E-04  3456   0.668E-02    0.195E-02
DAV:   6    -0.151795187864E+03    0.39823E-04   -0.90119E-05  3080   0.625E-02    0.116E-02
DAV:   7    -0.151795163514E+03    0.24350E-04   -0.23580E-05  2440   0.469E-02    0.114E-02
DAV:   8    -0.151795136016E+03    0.27499E-04   -0.40763E-05  2808   0.623E-02    0.778E-03
DAV:   9    -0.151795106099E+03    0.29917E-04   -0.20137E-05  2360   0.771E-02    0.599E-03
DAV:  10    -0.151795094969E+03    0.11130E-04   -0.47293E-05  3012   0.549E-02    0.579E-03
DAV:  11    -0.151795088225E+03    0.67445E-05   -0.12590E-05  2136   0.447E-02
   5 F= -.15179509E+03 E0= -.15179213E+03  d E =-.186525E-02
       N       E                     dE             d eps       ncg     rms          rms(c)
DAV:   1    -0.151795361254E+03   -0.26629E-03   -0.58162E-02  2920   0.104E+00    0.329E-02
DAV:   2    -0.151795500911E+03   -0.13966E-03   -0.15503E-03  3248   0.149E-01    0.187E-02
DAV:   3    -0.151795491578E+03    0.93337E-05   -0.16556E-05  2188   0.229E-02    0.130E-02
DAV:   4    -0.151795480980E+03    0.10598E-04   -0.14854E-05  2332   0.320E-02    0.451E-03
DAV:   5    -0.151795478908E+03    0.20721E-05   -0.11729E-05  1928   0.237E-02    0.368E-03
DAV:   6    -0.151795477745E+03    0.11622E-05   -0.60059E-06  1864   0.201E-02
   6 F= -.15179548E+03 E0= -.15179249E+03  d E =-.389521E-03
       N       E                     dE             d eps       ncg     rms          rms(c)
DAV:   1    -0.151795363849E+03    0.11506E-03   -0.52113E-01  2872   0.309E+00    0.973E-02
DAV:   2    -0.151796577955E+03   -0.12141E-02   -0.13270E-02  3196   0.424E-01    0.534E-02
DAV:   3    -0.151796510139E+03    0.67816E-04   -0.11567E-04  3268   0.628E-02    0.359E-02
DAV:   4    -0.151796459523E+03    0.50616E-04   -0.80077E-05  3256   0.716E-02    0.132E-02
DAV:   5    -0.151796449350E+03    0.10173E-04   -0.76108E-05  3276   0.588E-02    0.755E-03
DAV:   6    -0.151796448003E+03    0.13477E-05   -0.26010E-05  2436   0.243E-02
   7 F= -.15179645E+03 E0= -.15179338E+03  d E =-.135978E-02
       N       E                     dE             d eps       ncg     rms          rms(c)
DAV:   1    -0.151793003517E+03    0.34458E-02   -0.20870E+00  2872   0.619E+00    0.196E-01
DAV:   2    -0.151797895309E+03   -0.48918E-02   -0.53646E-02  3196   0.853E-01    0.110E-01
DAV:   3    -0.151797607098E+03    0.28821E-03   -0.47342E-04  3356   0.128E-01    0.731E-02
DAV:   4    -0.151797398478E+03    0.20862E-03   -0.34550E-04  3408   0.145E-01    0.270E-02
DAV:   5    -0.151797355669E+03    0.42808E-04   -0.31407E-04  3388   0.117E-01    0.147E-02
DAV:   6    -0.151797349384E+03    0.62853E-05   -0.96989E-05  3212   0.444E-02
   8 F= -.15179735E+03 E0= -.15179410E+03  d E =-.226116E-02
       N       E                     dE             d eps       ncg     rms          rms(c)
DAV:   1    -0.151796721094E+03    0.63457E-03   -0.30401E-01  2880   0.237E+00    0.756E-02
DAV:   2    -0.151797405776E+03   -0.68468E-03   -0.77343E-03  3232   0.326E-01    0.416E-02
DAV:   3    -0.151797351713E+03    0.54063E-04   -0.71313E-05  3240   0.585E-02    0.282E-02
DAV:   4    -0.151797298808E+03    0.52905E-04   -0.58114E-05  3240   0.775E-02    0.106E-02
DAV:   5    -0.151797279742E+03    0.19065E-04   -0.79361E-05  3420   0.690E-02    0.700E-03
DAV:   6    -0.151797277597E+03    0.21452E-05   -0.38162E-05  2784   0.305E-02
   9 F= -.15179728E+03 E0= -.15179396E+03  d E =-.218937E-02
       N       E                     dE             d eps       ncg     rms          rms(c)
DAV:   1    -0.151797611443E+03   -0.33170E-03   -0.43276E-01  2920   0.286E+00    0.864E-02
DAV:   2    -0.151798538683E+03   -0.92724E-03   -0.10244E-02  3196   0.399E-01    0.493E-02
DAV:   3    -0.151798477918E+03    0.60765E-04   -0.92464E-05  3368   0.497E-02    0.344E-02
DAV:   4    -0.151798422763E+03    0.55156E-04   -0.14857E-04  3272   0.741E-02    0.118E-02
DAV:   5    -0.151798417694E+03    0.50687E-05   -0.61781E-05  3036   0.379E-02    0.113E-02
DAV:   6    -0.151798409037E+03    0.86565E-05   -0.17016E-05  2044   0.259E-02
  10 F= -.15179841E+03 E0= -.15179505E+03  d E =-.113144E-02
       N       E                     dE             d eps       ncg     rms          rms(c)
DAV:   1    -0.151796085745E+03    0.23319E-02   -0.16861E+00  2928   0.566E+00    0.168E-01
DAV:   2    -0.151799691617E+03   -0.36059E-02   -0.40001E-02  3192   0.793E-01    0.993E-02
DAV:   3    -0.151799430759E+03    0.26086E-03   -0.38373E-04  3376   0.105E-01    0.697E-02
DAV:   4    -0.151799148117E+03    0.28264E-03   -0.53212E-04  3368   0.151E-01    0.256E-02
DAV:   5    -0.151799088533E+03    0.59584E-04   -0.24764E-04  3280   0.956E-02    0.230E-02
DAV:   6    -0.151799016368E+03    0.72165E-04   -0.10998E-04  3188   0.868E-02    0.115E-02
DAV:   7    -0.151798902045E+03    0.11432E-03   -0.46341E-05  3220   0.127E-01    0.163E-02
DAV:   8    -0.151798743551E+03    0.15849E-03   -0.67260E-05  3460   0.170E-01    0.144E-02
DAV:   9    -0.151798534985E+03    0.20857E-03   -0.20622E-04  4252   0.290E-01    0.147E-02
DAV:  10    -0.151798379522E+03    0.15546E-03   -0.30873E-04  4136   0.400E-01    0.142E-02
DAV:  11    -0.151798420844E+03   -0.41322E-04   -0.64529E-04  3276   0.138E-01    0.124E-02
DAV:  12    -0.151798433216E+03   -0.12372E-04   -0.15043E-04  2972   0.446E-02    0.195E-02
DAV:  13    -0.151798430050E+03    0.31660E-05   -0.11907E-05  1752   0.172E-02
  11 F= -.15179843E+03 E0= -.15179503E+03  d E =-.115245E-02
       N       E                     dE             d eps       ncg     rms          rms(c)
DAV:   1    -0.151798247817E+03    0.18540E-03   -0.28574E-01  2936   0.232E+00    0.735E-02
DAV:   2    -0.151798866849E+03   -0.61903E-03   -0.68585E-03  3216   0.323E-01    0.405E-02
DAV:   3    -0.151798823636E+03    0.43212E-04   -0.64542E-05  3320   0.424E-02    0.274E-02
DAV:   4    -0.151798786517E+03    0.37119E-04   -0.93680E-05  3152   0.587E-02    0.914E-03
DAV:   5    -0.151798783016E+03    0.35011E-05   -0.35935E-05  2788   0.316E-02    0.802E-03
DAV:   6    -0.151798776831E+03    0.61847E-05   -0.99242E-06  1864   0.247E-02
  12 F= -.15179878E+03 E0= -.15179541E+03  d E =-.149923E-02
       N       E                     dE             d eps       ncg     rms          rms(c)
DAV:   1    -0.151799182313E+03   -0.39930E-03   -0.30039E-01  2864   0.231E+00    0.714E-02
DAV:   2    -0.151799752151E+03   -0.56984E-03   -0.66424E-03  3268   0.318E-01    0.422E-02
DAV:   3    -0.151799708873E+03    0.43278E-04   -0.78925E-05  3296   0.459E-02    0.292E-02
DAV:   4    -0.151799670716E+03    0.38157E-04   -0.17992E-04  3300   0.708E-02    0.171E-02
DAV:   5    -0.151799665521E+03    0.51952E-05   -0.41105E-05  2836   0.322E-02    0.168E-02
DAV:   6    -0.151799655467E+03    0.10054E-04   -0.16353E-05  2124   0.262E-02    0.936E-03
DAV:   7    -0.151799643503E+03    0.11964E-04   -0.76734E-06  2000   0.326E-02    0.567E-03
DAV:   8    -0.151799625002E+03    0.18501E-04   -0.11256E-05  2180   0.553E-02    0.453E-03
DAV:   9    -0.151799605272E+03    0.19731E-04   -0.16903E-05  2360   0.660E-02    0.389E-03
DAV:  10    -0.151799583572E+03    0.21700E-04   -0.24596E-05  2496   0.109E-01    0.892E-03
DAV:  11    -0.151799578457E+03    0.51154E-05   -0.50473E-05  2968   0.740E-02
  13 F= -.15179958E+03 E0= -.15179617E+03  d E =-.801626E-03
       N       E                     dE             d eps       ncg     rms          rms(c)
DAV:   1    -0.151799510712E+03    0.72860E-04   -0.23562E-01  2872   0.206E+00    0.604E-02
DAV:   2    -0.151799963702E+03   -0.45299E-03   -0.51151E-03  3284   0.279E-01    0.393E-02
DAV:   3    -0.151799931698E+03    0.32003E-04   -0.51055E-05  3088   0.399E-02    0.264E-02
DAV:   4    -0.151799912266E+03    0.19433E-04   -0.14565E-04  3296   0.601E-02    0.135E-02
DAV:   5    -0.151799911504E+03    0.76208E-06   -0.28301E-05  2416   0.244E-02    0.119E-02
DAV:   6    -0.151799908238E+03    0.32659E-05   -0.10435E-05  1756   0.174E-02
  14 F= -.15179991E+03 E0= -.15179648E+03  d E =-.113141E-02
       N       E                     dE             d eps       ncg     rms          rms(c)
DAV:   1    -0.151800594601E+03   -0.68310E-03   -0.61279E-02  2992   0.102E+00    0.353E-02
DAV:   2    -0.151800673473E+03   -0.78872E-04   -0.14102E-03  3352   0.158E-01    0.240E-02
DAV:   3    -0.151800651008E+03    0.22465E-04   -0.61704E-05  3152   0.419E-02    0.189E-02
DAV:   4    -0.151800627109E+03    0.23899E-04   -0.25547E-05  2636   0.323E-02    0.994E-03
DAV:   5    -0.151800599619E+03    0.27491E-04   -0.20272E-05  2496   0.514E-02    0.880E-03
DAV:   6    -0.151800571009E+03    0.28610E-04   -0.29493E-05  2816   0.797E-02    0.611E-03
DAV:   7    -0.151800553926E+03    0.17083E-04   -0.47003E-05  3016   0.758E-02    0.997E-03
DAV:   8    -0.151800539243E+03    0.14683E-04   -0.28339E-05  2660   0.540E-02    0.608E-03
DAV:   9    -0.151800515988E+03    0.23255E-04   -0.22456E-05  2572   0.100E-01    0.733E-03
DAV:  10    -0.151800502608E+03    0.13380E-04   -0.31638E-05  2820   0.102E-01    0.100E-02
DAV:  11    -0.151800500800E+03    0.18072E-05   -0.56813E-05  2916   0.584E-02
  15 F= -.15180050E+03 E0= -.15179706E+03  d E =-.592563E-03
       N       E                     dE             d eps       ncg     rms          rms(c)
DAV:   1    -0.151800590998E+03   -0.88390E-04   -0.16043E-02  3072   0.529E-01    0.176E-02
DAV:   2    -0.151800621624E+03   -0.30627E-04   -0.41430E-04  3328   0.812E-02    0.150E-02
DAV:   3    -0.151800615805E+03    0.58192E-05   -0.72644E-06  1876   0.145E-02    0.108E-02
DAV:   4    -0.151800609305E+03    0.65003E-05   -0.25225E-05  2704   0.262E-02    0.475E-03
DAV:   5    -0.151800608559E+03    0.74592E-06   -0.47361E-06  1676   0.118E-02    0.444E-03
DAV:   6    -0.151800606463E+03    0.20962E-05   -0.13557E-06  1772   0.135E-02
  16 F= -.15180061E+03 E0= -.15179716E+03  d E =-.698225E-03
       N       E                     dE             d eps       ncg     rms          rms(c)
DAV:   1    -0.151800910608E+03   -0.30205E-03   -0.16568E-01  2904   0.169E+00    0.497E-02
DAV:   2    -0.151801237220E+03   -0.32661E-03   -0.35604E-03  3240   0.228E-01    0.320E-02
DAV:   3    -0.151801214965E+03    0.22255E-04   -0.29918E-05  2584   0.312E-02    0.224E-02
DAV:   4    -0.151801201348E+03    0.13617E-04   -0.12290E-04  3228   0.674E-02    0.103E-02
DAV:   5    -0.151801202522E+03   -0.11735E-05   -0.37589E-05  2640   0.256E-02    0.120E-02
DAV:   6    -0.151801202280E+03    0.24219E-06   -0.10776E-06  1548   0.421E-03
  17 F= -.15180120E+03 E0= -.15179775E+03  d E =-.595817E-03
       N       E                     dE             d eps       ncg     rms          rms(c)
DAV:   1    -0.151799604067E+03    0.15985E-02   -0.14895E+00  2896   0.505E+00    0.150E-01
DAV:   2    -0.151802457863E+03   -0.28538E-02   -0.31470E-02  3216   0.679E-01    0.911E-02
DAV:   3    -0.151802259208E+03    0.19866E-03   -0.26776E-04  3348   0.952E-02    0.643E-02
DAV:   4    -0.151802087821E+03    0.17139E-03   -0.79052E-04  3448   0.202E-01    0.237E-02
DAV:   5    -0.151802104416E+03   -0.16595E-04   -0.40642E-04  3160   0.838E-02    0.336E-02
DAV:   6    -0.151802101349E+03    0.30672E-05   -0.14309E-05  1852   0.153E-02
  18 F= -.15180210E+03 E0= -.15179864E+03  d E =-.149489E-02
       N       E                     dE             d eps       ncg     rms          rms(c)
DAV:   1    -0.151802287060E+03   -0.18264E-03   -0.24667E-01  2912   0.211E+00    0.744E-02
DAV:   2    -0.151802748904E+03   -0.46184E-03   -0.56870E-03  3280   0.297E-01    0.391E-02
DAV:   3    -0.151802699037E+03    0.49867E-04   -0.87824E-05  3356   0.584E-02    0.268E-02
DAV:   4    -0.151802655815E+03    0.43222E-04   -0.66797E-05  3108   0.701E-02    0.121E-02
DAV:   5    -0.151802625589E+03    0.30226E-04   -0.44891E-05  3096   0.642E-02    0.676E-03
DAV:   6    -0.151802609555E+03    0.16034E-04   -0.31608E-05  2668   0.418E-02    0.716E-03
DAV:   7    -0.151802587351E+03    0.22204E-04   -0.32786E-06  1964   0.363E-02    0.427E-03
DAV:   8    -0.151802525103E+03    0.62248E-04   -0.52898E-05  3164   0.131E-01    0.157E-02
DAV:   9    -0.151802523149E+03    0.19542E-05   -0.40570E-05  2720   0.250E-02
  19 F= -.15180252E+03 E0= -.15179909E+03  d E =-.421801E-03
       N       E                     dE             d eps       ncg     rms          rms(c)
DAV:   1    -0.151802084027E+03    0.44108E-03   -0.43918E-01  2912   0.282E+00    0.808E-02
DAV:   2    -0.151802928435E+03   -0.84441E-03   -0.96120E-03  3280   0.384E-01    0.519E-02
DAV:   3    -0.151802861705E+03    0.66730E-04   -0.12518E-04  3352   0.516E-02    0.357E-02
DAV:   4    -0.151802809799E+03    0.51906E-04   -0.10537E-04  3236   0.620E-02    0.141E-02
DAV:   5    -0.151802795040E+03    0.14759E-04   -0.56861E-05  3192   0.454E-02    0.812E-03
DAV:   6    -0.151802787947E+03    0.70928E-05   -0.17430E-05  1912   0.264E-02
  20 F= -.15180279E+03 E0= -.15179940E+03  d E =-.686599E-03
       N       E                     dE             d eps       ncg     rms          rms(c)
DAV:   1    -0.151803170987E+03   -0.37595E-03   -0.74636E-02  2872   0.117E+00    0.368E-02
DAV:   2    -0.151803308234E+03   -0.13725E-03   -0.16476E-03  3328   0.164E-01    0.209E-02
DAV:   3    -0.151803298919E+03    0.93155E-05   -0.33075E-05  2500   0.282E-02    0.148E-02
DAV:   4    -0.151803293624E+03    0.52949E-05   -0.18676E-05  1960   0.215E-02    0.696E-03
DAV:   5    -0.151803290952E+03    0.26715E-05   -0.79628E-06  1968   0.171E-02    0.391E-03
DAV:   6    -0.151803289909E+03    0.10435E-05   -0.35000E-06  1724   0.135E-02
  21 F= -.15180329E+03 E0= -.15179992E+03  d E =-.501962E-03
       N       E                     dE             d eps       ncg     rms          rms(c)
DAV:   1    -0.151803147840E+03    0.14311E-03   -0.31154E-01  2864   0.240E+00    0.758E-02
DAV:   2    -0.151803728377E+03   -0.58054E-03   -0.72027E-03  3328   0.351E-01    0.452E-02
DAV:   3    -0.151803684105E+03    0.44272E-04   -0.19413E-04  3348   0.667E-02    0.338E-02
DAV:   4    -0.151803645400E+03    0.38705E-04   -0.85996E-05  3240   0.443E-02    0.157E-02
DAV:   5    -0.151803613445E+03    0.31955E-04   -0.31611E-05  2736   0.598E-02    0.128E-02
DAV:   6    -0.151803596272E+03    0.17173E-04   -0.27297E-05  2468   0.546E-02    0.114E-02
DAV:   7    -0.151803584862E+03    0.11410E-04   -0.30307E-05  2588   0.452E-02    0.761E-03
DAV:   8    -0.151803567553E+03    0.17309E-04   -0.34146E-06  1956   0.499E-02    0.572E-03
DAV:   9    -0.151803548842E+03    0.18711E-04   -0.17915E-05  2252   0.608E-02    0.933E-03
DAV:  10    -0.151803531518E+03    0.17324E-04   -0.21271E-05  2540   0.789E-02    0.423E-03
DAV:  11    -0.151803523693E+03    0.78250E-05   -0.71884E-05  3544   0.111E-01
  22 F= -.15180352E+03 E0= -.15180020E+03  d E =-.735746E-03
       N       E                     dE             d eps       ncg     rms          rms(c)
DAV:   1    -0.151803534003E+03   -0.24852E-05   -0.35963E-02  2904   0.819E-01    0.272E-02
DAV:   2    -0.151803598113E+03   -0.64110E-04   -0.82432E-04  3328   0.120E-01    0.145E-02
DAV:   3    -0.151803593341E+03    0.47715E-05   -0.31887E-05  2696   0.279E-02    0.110E-02
DAV:   4    -0.151803589920E+03    0.34215E-05   -0.76514E-06  1732   0.131E-02    0.619E-03
DAV:   5    -0.151803585386E+03    0.45334E-05   -0.41981E-06  1984   0.193E-02    0.337E-03
DAV:   6    -0.151803583008E+03    0.23789E-05   -0.39007E-06  1960   0.203E-02
  23 F= -.15180358E+03 E0= -.15180024E+03  d E =-.795060E-03
       N       E                     dE             d eps       ncg     rms          rms(c)
DAV:   1    -0.151803758961E+03   -0.17357E-03   -0.84427E-02  2920   0.122E+00    0.361E-02
DAV:   2    -0.151803912169E+03   -0.15321E-03   -0.18002E-03  3344   0.167E-01    0.227E-02
DAV:   3    -0.151803898586E+03    0.13583E-04   -0.24205E-05  2548   0.269E-02    0.162E-02
DAV:   4    -0.151803884774E+03    0.13812E-04   -0.33874E-05  2836   0.397E-02    0.621E-03
DAV:   5    -0.151803883273E+03    0.15006E-05   -0.19945E-05  2196   0.237E-02    0.671E-03
DAV:   6    -0.151803882024E+03    0.12496E-05   -0.66322E-06  1652   0.126E-02
  24 F= -.15180388E+03 E0= -.15180051E+03  d E =-.299016E-03
       N       E                     dE             d eps       ncg     rms          rms(c)
DAV:   1    -0.151803726213E+03    0.15706E-03   -0.20536E-01  2944   0.191E+00    0.581E-02
DAV:   2    -0.151804106255E+03   -0.38004E-03   -0.44741E-03  3344   0.262E-01    0.357E-02
DAV:   3    -0.151804071602E+03    0.34653E-04   -0.61808E-05  3344   0.425E-02    0.251E-02
DAV:   4    -0.151804037111E+03    0.34491E-04   -0.95311E-05  3308   0.637E-02    0.995E-03
DAV:   5    -0.151804033657E+03    0.34536E-05   -0.48858E-05  3072   0.328E-02    0.116E-02
DAV:   6    -0.151804029410E+03    0.42472E-05   -0.10758E-05  1776   0.156E-02
  25 F= -.15180403E+03 E0= -.15180062E+03  d E =-.446403E-03
       N       E                     dE             d eps       ncg     rms          rms(c)
DAV:   1    -0.151804036921E+03   -0.32637E-05   -0.15115E-01  2904   0.172E+00    0.529E-02
DAV:   2    -0.151804375074E+03   -0.33815E-03   -0.37045E-03  3264   0.244E-01    0.310E-02
DAV:   3    -0.151804355495E+03    0.19580E-04   -0.42674E-05  3160   0.349E-02    0.217E-02
DAV:   4    -0.151804341990E+03    0.13504E-04   -0.52063E-05  2968   0.403E-02    0.872E-03
DAV:   5    -0.151804340350E+03    0.16403E-05   -0.15900E-05  1856   0.220E-02    0.732E-03
DAV:   6    -0.151804339247E+03    0.11029E-05   -0.80719E-06  1772   0.156E-02
  26 F= -.15180434E+03 E0= -.15180089E+03  d E =-.309837E-03
       N       E                     dE             d eps       ncg     rms          rms(c)
DAV:   1    -0.151804151008E+03    0.18934E-03   -0.14610E-01  2896   0.169E+00    0.521E-02
DAV:   2    -0.151804480821E+03   -0.32981E-03   -0.35947E-03  3256   0.240E-01    0.313E-02
DAV:   3    -0.151804460370E+03    0.20451E-04   -0.32666E-05  2744   0.326E-02    0.219E-02
DAV:   4    -0.151804445359E+03    0.15011E-04   -0.79260E-05  3104   0.536E-02    0.960E-03
DAV:   5    -0.151804445213E+03    0.14564E-06   -0.25941E-05  2212   0.242E-02    0.915E-03
DAV:   6    -0.151804444025E+03    0.11889E-05   -0.57373E-06  1604   0.111E-02
  27 F= -.15180444E+03 E0= -.15180095E+03  d E =-.414614E-03
       N       E                     dE             d eps       ncg     rms          rms(c)
DAV:   1    -0.151804219114E+03    0.22610E-03   -0.29645E-01  2928   0.240E+00    0.735E-02
DAV:   2    -0.151804898275E+03   -0.67916E-03   -0.73927E-03  3148   0.332E-01    0.393E-02
DAV:   3    -0.151804856111E+03    0.42164E-04   -0.76685E-05  3288   0.416E-02    0.267E-02
DAV:   4    -0.151804823892E+03    0.32219E-04   -0.40330E-05  2888   0.419E-02    0.116E-02
DAV:   5    -0.151804807503E+03    0.16389E-04   -0.39209E-05  3048   0.414E-02    0.499E-03
DAV:   6    -0.151804803504E+03    0.39994E-05   -0.18447E-05  2300   0.205E-02
  28 F= -.15180480E+03 E0= -.15180128E+03  d E =-.359479E-03
       N       E                     dE             d eps       ncg     rms          rms(c)
DAV:   1    -0.151802777038E+03    0.20305E-02   -0.11007E+00  2928   0.462E+00    0.141E-01
DAV:   2    -0.151805280534E+03   -0.25035E-02   -0.27497E-02  3160   0.642E-01    0.763E-02
DAV:   3    -0.151805110537E+03    0.17000E-03   -0.29699E-04  3368   0.856E-02    0.520E-02
DAV:   4    -0.151804971888E+03    0.13865E-03   -0.15378E-04  3368   0.855E-02    0.233E-02
DAV:   5    -0.151804889416E+03    0.82472E-04   -0.15081E-04  3376   0.914E-02    0.991E-03
DAV:   6    -0.151804866512E+03    0.22904E-04   -0.99142E-05  3300   0.510E-02    0.117E-02
DAV:   7    -0.151804843492E+03    0.23020E-04   -0.89658E-06  2128   0.261E-02    0.710E-03
DAV:   8    -0.151804770314E+03    0.73179E-04   -0.49212E-05  2944   0.104E-01    0.107E-02
DAV:   9    -0.151804745283E+03    0.25031E-04   -0.52291E-05  3160   0.667E-02    0.784E-03
DAV:  10    -0.151804711150E+03    0.34133E-04   -0.27416E-05  2576   0.114E-01    0.627E-03
DAV:  11    -0.151804702588E+03    0.85618E-05   -0.78631E-05  3216   0.799E-02
  29 F= -.15180470E+03 E0= -.15180112E+03  d E =-.258564E-03
       N       E                     dE             d eps       ncg     rms          rms(c)
DAV:   1    -0.151804310181E+03    0.40097E-03   -0.27082E-01  2992   0.230E+00    0.735E-02
DAV:   2    -0.151804936920E+03   -0.62674E-03   -0.69444E-03  3244   0.327E-01    0.376E-02
DAV:   3    -0.151804897866E+03    0.39054E-04   -0.93353E-05  3356   0.459E-02    0.262E-02
DAV:   4    -0.151804867856E+03    0.30009E-04   -0.35229E-05  2840   0.374E-02    0.122E-02
DAV:   5    -0.151804850386E+03    0.17470E-04   -0.31926E-05  2908   0.460E-02    0.613E-03
DAV:   6    -0.151804846851E+03    0.35349E-05   -0.24895E-05  2476   0.294E-02
  30 F= -.15180485E+03 E0= -.15180130E+03  d E =-.402827E-03
       N       E                     dE             d eps       ncg     rms          rms(c)
DAV:   1    -0.151804908841E+03   -0.58455E-04   -0.35690E-02  2888   0.836E-01    0.252E-02
DAV:   2    -0.151804989634E+03   -0.80793E-04   -0.89062E-04  3188   0.118E-01    0.145E-02
DAV:   3    -0.151804985664E+03    0.39702E-05   -0.14517E-05  2024   0.178E-02    0.104E-02
DAV:   4    -0.151804982536E+03    0.31283E-05   -0.63315E-06  1644   0.132E-02    0.454E-03
DAV:   5    -0.151804981269E+03    0.12666E-05   -0.35919E-06  1868   0.129E-02    0.319E-03
DAV:   6    -0.151804980988E+03    0.28124E-06   -0.29587E-06  1596   0.101E-02
  31 F= -.15180498E+03 E0= -.15180142E+03  d E =-.134137E-03
       N       E                     dE             d eps       ncg     rms          rms(c)
DAV:   1    -0.151804611387E+03    0.36988E-03   -0.32140E-01  2872   0.251E+00    0.779E-02
DAV:   2    -0.151805357832E+03   -0.74645E-03   -0.80521E-03  3152   0.349E-01    0.407E-02
DAV:   3    -0.151805326931E+03    0.30901E-04   -0.10446E-04  3372   0.479E-02    0.288E-02
DAV:   4    -0.151805308981E+03    0.17950E-04   -0.55555E-05  3172   0.376E-02    0.126E-02
DAV:   5    -0.151805303846E+03    0.51345E-05   -0.15743E-05  2176   0.270E-02    0.636E-03
DAV:   6    -0.151805303514E+03    0.33256E-06   -0.13800E-05  1880   0.223E-02
  32 F= -.15180530E+03 E0= -.15180171E+03  d E =-.456662E-03
       N       E                     dE             d eps       ncg     rms          rms(c)
DAV:   1    -0.151802699423E+03    0.26044E-02   -0.12862E+00  2872   0.502E+00    0.155E-01
DAV:   2    -0.151805674937E+03   -0.29755E-02   -0.32148E-02  3144   0.697E-01    0.818E-02
DAV:   3    -0.151805547207E+03    0.12773E-03   -0.40919E-04  3392   0.961E-02    0.574E-02
DAV:   4    -0.151805473055E+03    0.74152E-04   -0.21519E-04  3380   0.762E-02    0.252E-02
DAV:   5    -0.151805451948E+03    0.21106E-04   -0.72913E-05  3256   0.568E-02    0.125E-02
DAV:   6    -0.151805450573E+03    0.13750E-05   -0.57054E-05  3204   0.442E-02
  33 F= -.15180545E+03 E0= -.15180179E+03  d E =-.603722E-03
       N       E                     dE             d eps       ncg     rms          rms(c)
DAV:   1    -0.151805854403E+03   -0.40245E-03   -0.64935E-02  2856   0.112E+00    0.388E-02
DAV:   2    -0.151805966033E+03   -0.11163E-03   -0.14121E-03  3292   0.154E-01    0.173E-02
DAV:   3    -0.151805955047E+03    0.10986E-04   -0.25093E-05  2508   0.237E-02    0.121E-02
DAV:   4    -0.151805940530E+03    0.14517E-04   -0.11780E-05  2076   0.317E-02    0.499E-03
DAV:   5    -0.151805930213E+03    0.10317E-04   -0.17043E-05  2232   0.323E-02    0.630E-03
DAV:   6    -0.151805920408E+03    0.98050E-05   -0.11507E-05  2124   0.342E-02
  34 F= -.15180592E+03 E0= -.15180224E+03  d E =-.469835E-03
       N       E                     dE             d eps       ncg     rms          rms(c)
DAV:   1    -0.151805759770E+03    0.17044E-03   -0.45200E-01  2856   0.297E+00    0.890E-02
DAV:   2    -0.151806557561E+03   -0.79779E-03   -0.98312E-03  3308   0.405E-01    0.484E-02
DAV:   3    -0.151806470100E+03    0.87461E-04   -0.16273E-04  3468   0.628E-02    0.332E-02
DAV:   4    -0.151806345533E+03    0.12457E-03   -0.12348E-04  3524   0.866E-02    0.142E-02
DAV:   5    -0.151806290857E+03    0.54676E-04   -0.10023E-04  3576   0.747E-02    0.170E-02
DAV:   6    -0.151806255398E+03    0.35459E-04   -0.58825E-05  3028   0.571E-02    0.116E-02
DAV:   7    -0.151806207307E+03    0.48091E-04   -0.25720E-05  2504   0.783E-02    0.769E-03
DAV:   8    -0.151806181914E+03    0.25393E-04   -0.49150E-05  3004   0.620E-02    0.606E-03
DAV:   9    -0.151806160175E+03    0.21739E-04   -0.19263E-05  2352   0.662E-02    0.579E-03
DAV:  10    -0.151806141442E+03    0.18732E-04   -0.22202E-05  2468   0.775E-02    0.727E-03
DAV:  11    -0.151806137856E+03    0.35861E-05   -0.57780E-05  2916   0.448E-02
  35 F= -.15180614E+03 E0= -.15180244E+03  d E =-.687283E-03
       N       E                     dE             d eps       ncg     rms          rms(c)
DAV:   1    -0.151806164212E+03   -0.22770E-04   -0.29605E-02  2912   0.763E-01    0.233E-02
DAV:   2    -0.151806216876E+03   -0.52664E-04   -0.70500E-04  3300   0.114E-01    0.152E-02
DAV:   3    -0.151806209642E+03    0.72349E-05   -0.17948E-05  2128   0.217E-02    0.115E-02
DAV:   4    -0.151806198399E+03    0.11243E-04   -0.15490E-05  2108   0.263E-02    0.509E-03
DAV:   5    -0.151806193374E+03    0.50249E-05   -0.10379E-05  2100   0.277E-02    0.676E-03
DAV:   6    -0.151806190814E+03    0.25595E-05   -0.16858E-05  2236   0.315E-02
  36 F= -.15180619E+03 E0= -.15180249E+03  d E =-.740241E-03
       N       E                     dE             d eps       ncg     rms          rms(c)
DAV:   1    -0.151806207610E+03   -0.14237E-04   -0.26797E-01  2896   0.222E+00    0.654E-02
DAV:   2    -0.151806707863E+03   -0.50025E-03   -0.57510E-03  3272   0.305E-01    0.396E-02
DAV:   3    -0.151806671128E+03    0.36735E-04   -0.76297E-05  3344   0.451E-02    0.285E-02
DAV:   4    -0.151806641408E+03    0.29720E-04   -0.12232E-04  3328   0.593E-02    0.129E-02
DAV:   5    -0.151806640672E+03    0.73663E-06   -0.43171E-05  2936   0.324E-02    0.131E-02
DAV:   6    -0.151806640021E+03    0.65048E-06   -0.75635E-06  1620   0.114E-02
  37 F= -.15180664E+03 E0= -.15180293E+03  d E =-.449207E-03
       N       E                     dE             d eps       ncg     rms          rms(c)
DAV:   1    -0.151806363194E+03    0.27748E-03   -0.23686E-01  2888   0.209E+00    0.647E-02
DAV:   2    -0.151806804299E+03   -0.44110E-03   -0.51707E-03  3280   0.294E-01    0.375E-02
DAV:   3    -0.151806771584E+03    0.32715E-04   -0.92712E-05  3352   0.503E-02    0.275E-02
DAV:   4    -0.151806743998E+03    0.27586E-04   -0.85881E-05  3260   0.504E-02    0.132E-02
DAV:   5    -0.151806735505E+03    0.84938E-05   -0.32092E-05  2836   0.391E-02    0.116E-02
DAV:   6    -0.151806732349E+03    0.31552E-05   -0.16709E-05  1740   0.217E-02
  38 F= -.15180673E+03 E0= -.15180302E+03  d E =-.541535E-03
       N       E                     dE             d eps       ncg     rms          rms(c)
DAV:   1    -0.151806763947E+03   -0.28443E-04   -0.11534E-01  3008   0.148E+00    0.470E-02
DAV:   2    -0.151807002193E+03   -0.23825E-03   -0.29308E-03  3224   0.209E-01    0.264E-02
DAV:   3    -0.151806972878E+03    0.29315E-04   -0.42912E-05  3088   0.330E-02    0.189E-02
DAV:   4    -0.151806941966E+03    0.30912E-04   -0.24270E-05  2520   0.411E-02    0.879E-03
DAV:   5    -0.151806913134E+03    0.28832E-04   -0.34534E-05  2916   0.506E-02    0.502E-03
DAV:   6    -0.151806900961E+03    0.12172E-04   -0.23241E-05  2612   0.309E-02    0.518E-03
DAV:   7    -0.151806873366E+03    0.27595E-04   -0.10463E-05  2192   0.581E-02    0.561E-03
DAV:   8    -0.151806852245E+03    0.21121E-04   -0.18695E-05  2444   0.640E-02    0.614E-03
DAV:   9    -0.151806836401E+03    0.15844E-04   -0.25991E-05  2724   0.734E-02    0.324E-03
DAV:  10    -0.151806823306E+03    0.13095E-04   -0.16809E-05  2392   0.992E-02    0.278E-03
DAV:  11    -0.151806823069E+03    0.23638E-06   -0.57000E-05  2828   0.615E-02
  39 F= -.15180682E+03 E0= -.15180307E+03  d E =-.907199E-04
       N       E                     dE             d eps       ncg     rms          rms(c)
DAV:   1    -0.151806801075E+03    0.22231E-04   -0.83952E-03  3088   0.403E-01    0.140E-02
DAV:   2    -0.151806817043E+03   -0.15968E-04   -0.21547E-04  3256   0.576E-02    0.738E-03
DAV:   3    -0.151806814238E+03    0.28045E-05   -0.30247E-06  1768   0.107E-02    0.505E-03
DAV:   4    -0.151806811100E+03    0.31382E-05   -0.27100E-06  2008   0.151E-02    0.209E-03
DAV:   5    -0.151806809704E+03    0.13963E-05   -0.36709E-06  1888   0.153E-02    0.154E-03
DAV:   6    -0.151806809452E+03    0.25216E-06   -0.28522E-06  1584   0.896E-03
  40 F= -.15180681E+03 E0= -.15180307E+03  d E =-.771022E-04
       N       E                     dE             d eps       ncg     rms          rms(c)
DAV:   1    -0.151806810214E+03   -0.50974E-06   -0.48667E-03  3048   0.306E-01    0.966E-03
DAV:   2    -0.151806820860E+03   -0.10646E-04   -0.12434E-04  3204   0.437E-02    0.573E-03
DAV:   3    -0.151806820101E+03    0.75898E-06   -0.22253E-06  1528   0.672E-03    0.411E-03
DAV:   4    -0.151806819537E+03    0.56388E-06   -0.10211E-06  1512   0.571E-03    0.172E-03
DAV:   5    -0.151806819359E+03    0.17783E-06   -0.88635E-07  1524   0.485E-03    0.931E-04
DAV:   6    -0.151806819357E+03    0.21309E-08   -0.30048E-07  1512   0.214E-03
  41 F= -.15180682E+03 E0= -.15180307E+03  d E =-.870074E-04
       N       E                     dE             d eps       ncg     rms          rms(c)
DAV:   1    -0.151806926410E+03   -0.10705E-03   -0.35999E-02  2992   0.801E-01    0.304E-02
DAV:   2    -0.151806987708E+03   -0.61297E-04   -0.10475E-03  3288   0.132E-01    0.186E-02
DAV:   3    -0.151806979741E+03    0.79671E-05   -0.63316E-05  3272   0.371E-02    0.163E-02
DAV:   4    -0.151806973566E+03    0.61753E-05   -0.12473E-05  1860   0.180E-02    0.956E-03
DAV:   5    -0.151806964264E+03    0.93013E-05   -0.12954E-05  2368   0.288E-02    0.512E-03
DAV:   6    -0.151806961263E+03    0.30013E-05   -0.92436E-06  1992   0.243E-02
  42 F= -.15180696E+03 E0= -.15180320E+03  d E =-.141906E-03
