 vasp.5.3.5 31Mar14 (build Apr 08 2024 10:12:10) complex                        
  
 executed on             LinuxIFC date 2024.07.29  12:27:21
 running on    8 total cores
 distrk:  each k-point on    8 cores,    1 groups
 distr:  one band on NCORES_PER_BAND=   4 cores,    2 groups


--------------------------------------------------------------------------------------------------------


 INCAR:
 POTCAR:    PAW_PBE O 08Apr2002                   
 POTCAR:    PAW_PBE Mg 13Apr2007                  
 POTCAR:    PAW_PBE Al 04Jan2001                  
 POTCAR:    PAW_PBE O 08Apr2002                   
   VRHFIN =O: s2p4                                                              
   LEXCH  = PE                                                                  
   EATOM  =   432.3788 eV,   31.7789 Ry                                         
                                                                                
   TITEL  = PAW_PBE O 08Apr2002                                                 
   LULTRA =        F    use ultrasoft PP ?                                      
   IUNSCR =        1    unscreen: 0-lin 1-nonlin 2-no                           
   RPACOR =    1.200    partial core radius                                     
   POMASS =   16.000; ZVAL   =    6.000    mass and valenz                      
   RCORE  =    1.520    outmost cutoff radius                                   
   RWIGS  =    1.550; RWIGS  =    0.820    wigner-seitz radius (au A)           
   ENMAX  =  400.000; ENMIN  =  300.000 eV                                      
   ICORE  =        2    local potential                                         
   LCOR   =        T    correct aug charges                                     
   LPAW   =        T    paw PP                                                  
   EAUG   =  605.392                                                            
   DEXC   =    0.000                                                            
   RMAX   =    1.553    core radius for proj-oper                               
   RAUG   =    1.300    factor for augmentation sphere                          
   RDEP   =    1.550    radius for radial grids                                 
   RDEPT  =    1.329    core radius for aug-charge                              
                                                                                
   Atomic configuration                                                         
    4 entries                                                                   
     n  l   j            E        occ.                                          
     1  0  0.50      -514.6923   2.0000                                         
     2  0  0.50       -23.9615   2.0000                                         
     2  1  0.50        -9.0305   4.0000                                         
     3  2  1.50        -9.5241   0.0000                                         
   Description                                                                  
     l       E           TYP  RCUT    TYP  RCUT                                 
     0    -23.9615318     23  1.200                                             
     0     -9.5240782     23  1.200                                             
     1     -9.0304911     23  1.520                                             
     1      8.1634956     23  1.520                                             
     2     -9.5240782      7  1.500                                             
  local pseudopotential read in
  partial core-charges read in
  partial kinetic energy density read in
  kinetic energy density of atom read in
  atomic valenz-charges read in
  non local Contribution for L=           0  read in
    real space projection operators read in
  non local Contribution for L=           0  read in
    real space projection operators read in
  non local Contribution for L=           1  read in
    real space projection operators read in
  non local Contribution for L=           1  read in
    real space projection operators read in
    PAW grid and wavefunctions read in
 
   number of l-projection  operators is LMAX  =           4
   number of lm-projection operators is LMMAX =           8
 
 POTCAR:    PAW_PBE Mg 13Apr2007                  
   VRHFIN =Mg: s2p0                                                             
   LEXCH  = PE                                                                  
   EATOM  =    23.0369 eV,    1.6932 Ry                                         
                                                                                
   TITEL  = PAW_PBE Mg 13Apr2007                                                
   LULTRA =        F    use ultrasoft PP ?                                      
   IUNSCR =        1    unscreen: 0-lin 1-nonlin 2-no                           
   RPACOR =    1.500    partial core radius                                     
   POMASS =   24.305; ZVAL   =    2.000    mass and valenz                      
   RCORE  =    2.000    outmost cutoff radius                                   
   RWIGS  =    2.880; RWIGS  =    1.524    wigner-seitz radius (au A)           
   ENMAX  =  200.000; ENMIN  =  100.000 eV                                      
   RCLOC  =    1.506    cutoff for local pot                                    
   LCOR   =        T    correct aug charges                                     
   LPAW   =        T    paw PP                                                  
   EAUG   =  454.734                                                            
   DEXC   =    0.000                                                            
   RMAX   =    2.045    core radius for proj-oper                               
   RAUG   =    1.300    factor for augmentation sphere                          
   RDEP   =    2.025    radius for radial grids                                 
   RDEPT  =    1.942    core radius for aug-charge                              
                                                                                
   Atomic configuration                                                         
    6 entries                                                                   
     n  l   j            E        occ.                                          
     1  0  0.50     -1259.6230   2.0000                                         
     2  0  0.50       -79.8442   2.0000                                         
     2  1  1.50       -46.6121   6.0000                                         
     3  0  0.50        -4.7055   2.0000                                         
     3  1  0.50        -1.3660   0.0000                                         
     3  2  1.50        -1.3606   0.0000                                         
   Description                                                                  
     l       E           TYP  RCUT    TYP  RCUT                                 
     0     -4.7054661     23  2.000                                             
     0     27.2116520     23  2.000                                             
     1      1.3605826     23  2.000                                             
     1     27.2116520     23  2.000                                             
     2     -1.3605826     23  2.000                                             
  local pseudopotential read in
  partial core-charges read in
  partial kinetic energy density read in
  atomic valenz-charges read in
  non local Contribution for L=           0  read in
    real space projection operators read in
  non local Contribution for L=           0  read in
    real space projection operators read in
  non local Contribution for L=           1  read in
    real space projection operators read in
  non local Contribution for L=           1  read in
    real space projection operators read in
  non local Contribution for L=           2  read in
    real space projection operators read in
    PAW grid and wavefunctions read in
 
   number of l-projection  operators is LMAX  =           5
   number of lm-projection operators is LMMAX =          13
 
 POTCAR:    PAW_PBE Al 04Jan2001                  
   VRHFIN =Al: s2p1                                                             
   LEXCH  = PE                                                                  
   EATOM  =    53.5387 eV,    3.9350 Ry                                         
                                                                                
   TITEL  = PAW_PBE Al 04Jan2001                                                
   LULTRA =        F    use ultrasoft PP ?                                      
   IUNSCR =        1    unscreen: 0-lin 1-nonlin 2-no                           
   RPACOR =    1.500    partial core radius                                     
   POMASS =   26.981; ZVAL   =    3.000    mass and valenz                      
   RCORE  =    1.900    outmost cutoff radius                                   
   RWIGS  =    2.650; RWIGS  =    1.402    wigner-seitz radius (au A)           
   ENMAX  =  240.300; ENMIN  =  180.225 eV                                      
   ICORE  =        2    local potential                                         
   LCOR   =        T    correct aug charges                                     
   LPAW   =        T    paw PP                                                  
   EAUG   =  291.052                                                            
   DEXC   =    0.000                                                            
   RMAX   =    1.939    core radius for proj-oper                               
   RAUG   =    1.300    factor for augmentation sphere                          
   RDEP   =    1.966    radius for radial grids                                 
   RDEPT  =    1.856    core radius for aug-charge                              
                                                                                
   Atomic configuration                                                         
    6 entries                                                                   
     n  l   j            E        occ.                                          
     1  0  0.50     -1511.1048   2.0000                                         
     2  0  0.50      -108.1629   2.0000                                         
     2  1  1.50       -69.6402   6.0000                                         
     3  0  0.50        -7.7528   2.0000                                         
     3  1  1.50        -2.7121   1.0000                                         
     3  2  2.50        -2.7212   0.0000                                         
   Description                                                                  
     l       E           TYP  RCUT    TYP  RCUT                                 
     0     -7.7528455     23  1.900                                             
     0     -3.3096929     23  1.900                                             
     1     -2.7120682     23  1.900                                             
     1     13.6058260     23  1.900                                             
     2     -2.7211652      7  1.900                                             
  local pseudopotential read in
  partial core-charges read in
  partial kinetic energy density read in
  atomic valenz-charges read in
  non local Contribution for L=           0  read in
    real space projection operators read in
  non local Contribution for L=           0  read in
    real space projection operators read in
  non local Contribution for L=           1  read in
    real space projection operators read in
  non local Contribution for L=           1  read in
    real space projection operators read in
    PAW grid and wavefunctions read in
 
   number of l-projection  operators is LMAX  =           4
   number of lm-projection operators is LMMAX =           8
 

 ----------------------------------------------------------------------------- 
|                                                                             |
|  ADVICE TO THIS USER RUNNING 'VASP/VAMP'   (HEAR YOUR MASTER'S VOICE ...):  |
|                                                                             |
|      You have a (more or less) 'large supercell' and for larger cells       |
|      it might be more efficient to use real space projection opertators     |
|      So try LREAL= Auto  in the INCAR   file.                               |
|      Mind: At the moment your POTCAR file does not contain real space       |
|       projectors, and has to be modified,  BUT if you                       |
|      want to do an extremely  accurate calculation you might also keep the  |
|      reciprocal projection scheme          (i.e. LREAL=.FALSE.)             |
|                                                                             |
 ----------------------------------------------------------------------------- 

  PAW_PBE O 08Apr2002                   :
 energy of atom  1       EATOM= -432.3788
 kinetic energy error for atom=    0.0208 (will be added to EATOM!!)
  PAW_PBE Mg 13Apr2007                  :
 energy of atom  2       EATOM=  -23.0369
 kinetic energy error for atom=    0.0000 (will be added to EATOM!!)
  PAW_PBE Al 04Jan2001                  :
 energy of atom  3       EATOM=  -53.5387
 kinetic energy error for atom=    0.0002 (will be added to EATOM!!)
 
 
 POSCAR: Layer                                   
  positions in direct lattice
  velocities in cartesian coordinates
 exchange correlation table for  LEXCH =        8
   RHO(1)=    0.500       N(1)  =     2000
   RHO(2)=  100.500       N(2)  =     4000
 


--------------------------------------------------------------------------------------------------------


 ion  position               nearest neighbor table
   1  0.333  0.667  0.232-  12 2.16  12 2.16  12 2.16  23 2.29  23 2.29  23 2.29
   2  0.000  0.000  0.349-  19 2.14  19 2.14  19 2.14  16 2.14  16 2.14  16 2.14
   3  0.333  0.667  0.408-  16 2.14  16 2.14  16 2.14  13 2.14  13 2.14  13 2.14
   4  0.000  0.000  0.525-  17 2.14  17 2.14  17 2.14  20 2.14  20 2.14  20 2.14
   5  0.333  0.667  0.583-  17 2.14  17 2.14  17 2.14  14 2.14  14 2.14  14 2.14
   6  0.000  0.000  0.700-  18 2.14  18 2.14  18 2.14  21 2.14  21 2.14  21 2.14
   7  0.333  0.667  0.758-  15 2.14  15 2.14  15 2.14  18 2.14  18 2.14  18 2.14
   8  0.667  0.333  0.291-  12 2.14  12 2.14  12 2.14  19 2.14  19 2.14  19 2.14
   9  0.667  0.333  0.466-  20 2.14  20 2.14  20 2.14  13 2.14  13 2.14  13 2.14
  10  0.667  0.333  0.641-  14 2.14  14 2.14  14 2.14  21 2.14  21 2.14  21 2.14
  11  0.667  0.333  0.818-  15 2.16  15 2.16  15 2.16  26 2.29  26 2.29  26 2.29
  12  0.000  0.000  0.261-   8 2.14   8 2.14   8 2.14   1 2.16   1 2.16   1 2.16  23 2.82  19 3.07
                            19 3.07  19 3.07
  13  0.000  0.000  0.437-   9 2.14   9 2.14   9 2.14   3 2.14   3 2.14   3 2.14  20 3.08  20 3.08
                            20 3.08  16 3.08  16 3.08  16 3.08
  14  0.000  0.000  0.612-   5 2.14   5 2.14   5 2.14  10 2.14  10 2.14  10 2.14  17 3.08  17 3.08
                            17 3.08  21 3.08  21 3.08  21 3.08
  15  0.000  0.000  0.788-   7 2.14   7 2.14   7 2.14  11 2.16  11 2.16  11 2.16  26 2.82  18 3.07
                            18 3.07  18 3.07
  16  0.667  0.333  0.378-   3 2.14   3 2.14   3 2.14   2 2.14   2 2.14   2 2.14  13 3.08  13 3.08
                            13 3.08  19 3.08  19 3.08  19 3.08
  17  0.667  0.333  0.554-   4 2.14   4 2.14   4 2.14   5 2.14   5 2.14   5 2.14  20 3.08  20 3.08
                            20 3.08  14 3.08  14 3.08  14 3.08
  18  0.667  0.333  0.729-   6 2.14   6 2.14   6 2.14   7 2.14   7 2.14   7 2.14  15 3.07  15 3.07
                            15 3.07  21 3.08  21 3.08  21 3.08
  19  0.333  0.667  0.320-   2 2.14   2 2.14   2 2.14   8 2.14   8 2.14   8 2.14  12 3.07  12 3.07
                            12 3.07  16 3.08  16 3.08  16 3.08
  20  0.333  0.667  0.495-   4 2.14   4 2.14   4 2.14   9 2.14   9 2.14   9 2.14  17 3.08  17 3.08
                            17 3.08  13 3.08  13 3.08  13 3.08
  21  0.333  0.667  0.671-  10 2.14  10 2.14  10 2.14   6 2.14   6 2.14   6 2.14  14 3.08  14 3.08
                            14 3.08  18 3.08  18 3.08  18 3.08
  22  0.000  0.000  0.025-  25 3.08  25 3.08  25 3.08  27 3.08  27 3.08  27 3.08
  23  0.000  0.000  0.197-   1 2.29   1 2.29   1 2.29  12 2.82  24 2.95  24 2.95  24 2.95
  24  0.667  0.333  0.142-  23 2.95  23 2.95  23 2.95  25 3.09  25 3.09  25 3.09
  25  0.333  0.667  0.083-  22 3.08  22 3.08  22 3.08  24 3.09  24 3.09  24 3.09
  26  0.000  0.000  0.852-  11 2.29  11 2.29  11 2.29  15 2.82  28 2.95  28 2.95  28 2.95
  27  0.667  0.333  0.966-  22 3.08  22 3.08  22 3.08  28 3.09  28 3.09  28 3.09
  28  0.333  0.667  0.907-  26 2.95  26 2.95  26 2.95  27 3.09  27 3.09  27 3.09
 
  LATTYP: Found a hexagonal cell.
 ALAT       =     2.9737040142
 C/A-ratio  =    14.6848099160
  
  Lattice vectors:
  
 A1 = (   2.5753034102,  -1.4868516771,   0.0000000000)
 A2 = (   0.0000000000,   2.9737033542,   0.0000000000)
 A3 = (  -0.0000000000,   0.0000000000,  43.6682781951)


Analysis of symmetry for initial positions (statically):
=====================================================================
 Subroutine PRICEL returns:
 Original cell was already a primitive cell.
 

 Routine SETGRP: Setting up the symmetry group for a 
 hexagonal supercell.


 Subroutine GETGRP returns: Found 12 space group operations
 (whereof  6 operations were pure point group operations)
 out of a pool of 24 trial point group operations.


The static configuration has the point symmetry C_3v.
 The point group associated with its full space group is D_3d.


Analysis of symmetry for dynamics (positions and initial velocities):
=====================================================================
 Subroutine PRICEL returns:
 Original cell was already a primitive cell.
 

 Routine SETGRP: Setting up the symmetry group for a 
 hexagonal supercell.


 Subroutine GETGRP returns: Found 12 space group operations
 (whereof  6 operations were pure point group operations)
 out of a pool of 24 trial point group operations.


The dynamic configuration has the point symmetry C_3v.
 The point group associated with its full space group is D_3d.


Analysis of constrained symmetry for selective dynamics:
=====================================================================
 Subroutine PRICEL returns:
 Original cell was already a primitive cell.
 

 Routine SETGRP: Setting up the symmetry group for a 
 hexagonal supercell.


 Subroutine GETGRP returns: Found 12 space group operations
 (whereof  6 operations were pure point group operations)
 out of a pool of 24 trial point group operations.


The constrained configuration has the point symmetry C_3v.
 The point group associated with its full space group is D_3d.
 
 
 KPOINTS: K-Spacing Value to Generate K-Mesh: 0.02

Automatic generation of k-mesh.
Space group operators:
 irot       det(A)        alpha          n_x          n_y          n_z        tau_x        tau_y        tau_z
    1     1.000000     0.000000     1.000000     0.000000     0.000000     0.000000     0.000000     0.000000
    2     1.000000   120.000000     0.000000     0.000000    -1.000000     0.000000     0.000000     0.000000
    3     1.000000   120.000000    -0.000000     0.000000     1.000000     0.000000     0.000000     0.000000
    4    -1.000000   180.000000    -0.866025     0.500000    -0.000000     0.000000     0.000000     0.000000
    5    -1.000000   180.000000     0.000000     1.000000     0.000000     0.000000     0.000000     0.000000
    6    -1.000000   180.000000    -0.866025    -0.500000    -0.000000     0.000000     0.000000     0.000000
    7    -1.000000     0.000000     1.000000     0.000000     0.000000     0.000000     0.000000     0.049083
    8    -1.000000   120.000000     0.000000     0.000000    -1.000000     0.000000     0.000000     0.049083
    9    -1.000000   120.000000    -0.000000     0.000000     1.000000     0.000001     0.000000     0.049083
   10     1.000000   180.000000    -0.866025     0.500000    -0.000000     0.000001     0.000000     0.049083
   11     1.000000   180.000000     0.000000     1.000000     0.000000     0.000000     0.000000     0.049083
   12     1.000000   180.000000    -0.866025    -0.500000    -0.000000     0.000000     0.000000     0.049083
 
 Subroutine IBZKPT returns following result:
 ===========================================
 
 Found     21 irreducible k-points:
 
 Following reciprocal coordinates:
            Coordinates               Weight
  0.000000  0.000000  0.000000      1.000000
  0.076923  0.000000  0.000000      6.000000
  0.153846  0.000000  0.000000      6.000000
  0.230769  0.000000  0.000000      6.000000
  0.307692  0.000000  0.000000      6.000000
  0.384615  0.000000  0.000000      6.000000
  0.461538  0.000000  0.000000      6.000000
  0.076923  0.076923  0.000000      6.000000
  0.153846  0.076923  0.000000     12.000000
  0.230769  0.076923  0.000000     12.000000
  0.307692  0.076923  0.000000     12.000000
  0.384615  0.076923  0.000000     12.000000
  0.461538  0.076923  0.000000      6.000000
  0.153846  0.153846  0.000000      6.000000
  0.230769  0.153846  0.000000     12.000000
  0.307692  0.153846  0.000000     12.000000
  0.384615  0.153846  0.000000     12.000000
  0.230769  0.230769  0.000000      6.000000
  0.307692  0.230769  0.000000     12.000000
  0.384615  0.230769  0.000000      6.000000
  0.307692  0.307692  0.000000      6.000000
 
 Following cartesian coordinates:
            Coordinates               Weight
  0.000000  0.000000  0.000000      1.000000
  0.029870  0.000000  0.000000      6.000000
  0.059739  0.000000  0.000000      6.000000
  0.089609  0.000000  0.000000      6.000000
  0.119478  0.000000  0.000000      6.000000
  0.149348  0.000000  0.000000      6.000000
  0.179217  0.000000  0.000000      6.000000
  0.044804  0.025868  0.000000      6.000000
  0.074674  0.025868  0.000000     12.000000
  0.104543  0.025868  0.000000     12.000000
  0.134413  0.025868  0.000000     12.000000
  0.164282  0.025868  0.000000     12.000000
  0.194152  0.025868  0.000000      6.000000
  0.089609  0.051736  0.000000      6.000000
  0.119478  0.051736  0.000000     12.000000
  0.149348  0.051736  0.000000     12.000000
  0.179217  0.051736  0.000000     12.000000
  0.134413  0.077603  0.000000      6.000000
  0.164282  0.077603  0.000000     12.000000
  0.194152  0.077603  0.000000      6.000000
  0.179217  0.103471  0.000000      6.000000
 


--------------------------------------------------------------------------------------------------------




 Dimension of arrays:
   k-points           NKPTS =     21   k-points in BZ     NKDIM =     21   number of bands    NBANDS=     68
   number of dos      NEDOS =    301   number of ions     NIONS =     28
   non local maximal  LDIM  =      5   non local SUM 2l+1 LMDIM =     13
   total plane-waves  NPLWV = 193536
   max r-space proj   IRMAX =      1   max aug-charges    IRDMAX= 196849
   dimension x,y,z NGX =    24 NGY =   24 NGZ =  336
   dimension x,y,z NGXF=    48 NGYF=   48 NGZF=  672
   support grid    NGXF=    96 NGYF=   96 NGZF= 1344
   ions per type =              11  10   7
 NGX,Y,Z   is equivalent  to a cutoff of  13.42, 13.42, 12.79 a.u.
 NGXF,Y,Z  is equivalent  to a cutoff of  26.83, 26.83, 25.58 a.u.


 I would recommend the setting:
   dimension x,y,z NGX =    22 NGY =   22 NGZ =  325
 SYSTEM =  unknown system                          
 POSCAR =  Layer                                   

 Startparameter for this run:
   NWRITE =      2    write-flag & timer
   PREC   = accura    normal or accurate (medium, high low for compatibility)
   ISTART =      0    job   : 0-new  1-cont  2-samecut
   ICHARG =      2    charge: 1-file 2-atom 10-const
   ISPIN  =      1    spin polarized calculation?
   LNONCOLLINEAR =      F non collinear calculations
   LSORBIT =      F    spin-orbit coupling
   INIWAV =      1    electr: 0-lowe 1-rand  2-diag
   LASPH  =      F    aspherical Exc in radial PAW
   METAGGA=      F    non-selfconsistent MetaGGA calc.

 Electronic Relaxation 1
   ENCUT  =  520.0 eV  38.22 Ry    6.18 a.u.   5.53  5.53 81.19*2*pi/ulx,y,z
   ENINI  =  520.0     initial cutoff
   ENAUG  =  605.4 eV  augmentation charge cutoff
   NELM   =    100;   NELMIN=  6; NELMDL=  0     # of ELM steps 
   EDIFF  = 0.1E-04   stopping-criterion for ELM
   LREAL  =      F    real-space projection
   NLSPLINE    = F    spline interpolate recip. space projectors
   LCOMPAT=      F    compatible to vasp.4.4
   GGA_COMPAT  = T    GGA compatible to vasp.4.4-vasp.4.6
   LMAXPAW     = -100 max onsite density
   LMAXMIX     =    2 max onsite mixed and CHGCAR
   VOSKOWN=      0    Vosko Wilk Nusair interpolation
   ROPT   =    0.00000   0.00000   0.00000
 Ionic relaxation
   EDIFFG = -.2E-01   stopping-criterion for IOM
   NSW    =    500    number of steps for IOM
   NBLOCK =      1;   KBLOCK =    500    inner block; outer block 
   IBRION =      2    ionic relax: 0-MD 1-quasi-New 2-CG
   NFREE  =      1    steps in history (QN), initial steepest desc. (CG)
   ISIF   =      2    stress and relaxation
   IWAVPR =     11    prediction:  0-non 1-charg 2-wave 3-comb
   ISYM   =      2    0-nonsym 1-usesym 2-fastsym
   LCORR  =      T    Harris-Foulkes like correction to forces

   POTIM  = 0.5000    time-step for ionic-motion
   TEIN   =    0.0    initial temperature
   TEBEG  =    0.0;   TEEND  =   0.0 temperature during run
   SMASS  =  -3.00    Nose mass-parameter (am)
   estimated Nose-frequenzy (Omega)   =  0.10E-29 period in steps =****** mass=  -0.202E-27a.u.
   SCALEE = 1.0000    scale energy and forces
   NPACO  =    256;   APACO  = 16.0  distance and # of slots for P.C.
   PSTRESS=    0.0 pullay stress

  Mass of Ions in am
   POMASS =  16.00 24.30 26.98
  Ionic Valenz
   ZVAL   =   6.00  2.00  3.00
  Atomic Wigner-Seitz radii
   RWIGS  =  -1.00 -1.00 -1.00
  virtual crystal weights 
   VCA    =   1.00  1.00  1.00
   NELECT =     107.0000    total number of electrons
   NUPDOWN=      -1.0000    fix difference up-down

 DOS related values:
   EMIN   =  10.00;   EMAX   =-10.00  energy-range for DOS
   EFERMI =   0.00
   ISMEAR =     0;   SIGMA  =   0.05  broadening in eV -4-tet -1-fermi 0-gaus

 Electronic relaxation 2 (details)
   IALGO  =     38    algorithm
   LDIAG  =      T    sub-space diagonalisation (order eigenvalues)
   LSUBROT=      F    optimize rotation matrix (better conditioning)
   TURBO    =      0    0=normal 1=particle mesh
   IRESTART =      0    0=no restart 2=restart with 2 vectors
   NREBOOT  =      0    no. of reboots
   NMIN     =      0    reboot dimension
   EREF     =   0.00    reference energy to select bands
   IMIX   =      4    mixing-type and parameters
     AMIX     =   0.40;   BMIX     =  1.00
     AMIX_MAG =   1.60;   BMIX_MAG =  1.00
     AMIN     =   0.01
     WC   =   100.;   INIMIX=   1;  MIXPRE=   1;  MAXMIX= -45

 Intra band minimization:
   WEIMIN = 0.0010     energy-eigenvalue tresh-hold
   EBREAK =  0.37E-07  absolut break condition
   DEPER  =   0.30     relativ break condition  

   TIME   =   0.40     timestep for ELM

  volume/ion in A,a.u.               =      11.94        80.60
  Fermi-wavevector in a.u.,A,eV,Ry     =   1.119710  2.115944 17.058297  1.253749
  Thomas-Fermi vector in A             =   2.256351
 
 Write flags
   LWAVE  =      F    write WAVECAR
   LCHARG =      T    write CHGCAR
   LVTOT  =      F    write LOCPOT, total local potential
   LVHAR  =      F    write LOCPOT, Hartree potential only
   LELF   =      F    write electronic localiz. function (ELF)
   LORBIT =      0    0 simple, 1 ext, 2 COOP (PROOUT)


 Dipole corrections
   LMONO  =      F    monopole corrections only (constant potential shift)
   LDIPOL =      F    correct potential (dipole corrections)
   IDIPOL =      0    1-x, 2-y, 3-z, 4-all directions 
   EPSILON=  1.0000000 bulk dielectric constant

 Exchange correlation treatment:
   GGA     =    --    GGA type
   LEXCH   =     8    internal setting for exchange type
   VOSKOWN=      0    Vosko Wilk Nusair interpolation
   LHFCALC =     F    Hartree Fock is set to
   LHFONE  =     F    Hartree Fock one center treatment
   AEXX    =    0.0000 exact exchange contribution

 Linear response parameters
   LEPSILON=     F    determine dielectric tensor
   LRPA    =     F    only Hartree local field effects (RPA)
   LNABLA  =     F    use nabla operator in PAW spheres
   LVEL    =     F    velocity operator in full k-point grid
   LINTERFAST=   F  fast interpolation
   KINTER  =     0    interpolate to denser k-point grid
   CSHIFT  =0.1000    complex shift for real part using Kramers Kronig
   OMEGAMAX=  -1.0    maximum frequency
   DEG_THRESHOLD= 0.2000000E-02 threshold for treating states as degnerate
   RTIME   =    0.100 relaxation time in fs

 Orbital magnetization related:
   ORBITALMAG=     F  switch on orbital magnetization
   LCHIMAG   =     F  perturbation theory with respect to B field
   DQ        =  0.001000  dq finite difference perturbation B field



--------------------------------------------------------------------------------------------------------


 conjugate gradient relaxation of ions
   using selective dynamics as specified on POSCAR
 charge density and potential will be updated during run
 non-spin polarized calculation
 Variant of blocked Davidson
 Davidson routine will perform the subspace rotation
 perform sub-space diagonalisation
    after iterative eigenvector-optimisation
 modified Broyden-mixing scheme, WC =      100.0
 initial mixing is a Kerker type mixing with AMIX =  0.4000 and BMIX =      1.0000
 Hartree-type preconditioning will be used
 using additional bands           14
 reciprocal scheme for non local part
 use partial core corrections
 calculate Harris-corrections to forces 
   (improved forces if not selfconsistent)
 use gradient corrections 
 use of overlap-Matrix (Vanderbilt PP)
 Gauss-broadening in eV      SIGMA  =   0.05


--------------------------------------------------------------------------------------------------------


  energy-cutoff  :      520.00
  volume of cell :      334.42
      direct lattice vectors                 reciprocal lattice vectors
     2.575303410 -1.486851677  0.000000000     0.388303761  0.000000000  0.000000000
     0.000000000  2.973703354  0.000000000     0.194151881  0.336281021  0.000000000
    -0.000000000  0.000000000 43.668278195     0.000000000  0.000000000  0.022899918

  length of vectors
     2.973704014  2.973703354 43.668278195     0.388303761  0.388303847  0.022899918


 
 k-points in units of 2pi/SCALE and weight: K-Spacing Value to Generate K-Mesh: 0.02
   0.00000000  0.00000000  0.00000000       0.006
   0.02986952  0.00000000  0.00000000       0.036
   0.05973904  0.00000000  0.00000000       0.036
   0.08960856  0.00000000  0.00000000       0.036
   0.11947808  0.00000000  0.00000000       0.036
   0.14934760  0.00000000  0.00000000       0.036
   0.17921712  0.00000000  0.00000000       0.036
   0.04480428  0.02586777  0.00000000       0.036
   0.07467380  0.02586777  0.00000000       0.071
   0.10454332  0.02586777  0.00000000       0.071
   0.13441284  0.02586777  0.00000000       0.071
   0.16428236  0.02586777  0.00000000       0.071
   0.19415188  0.02586777  0.00000000       0.036
   0.08960856  0.05173554  0.00000000       0.036
   0.11947808  0.05173554  0.00000000       0.071
   0.14934760  0.05173554  0.00000000       0.071
   0.17921712  0.05173554  0.00000000       0.071
   0.13441284  0.07760331  0.00000000       0.036
   0.16428236  0.07760331  0.00000000       0.071
   0.19415188  0.07760331  0.00000000       0.036
   0.17921712  0.10347108  0.00000000       0.036
 
 k-points in reciprocal lattice and weights: K-Spacing Value to Generate K-Mesh: 0.02
   0.00000000  0.00000000  0.00000000       0.006
   0.07692308  0.00000000  0.00000000       0.036
   0.15384615  0.00000000  0.00000000       0.036
   0.23076923  0.00000000  0.00000000       0.036
   0.30769231  0.00000000  0.00000000       0.036
   0.38461538  0.00000000  0.00000000       0.036
   0.46153846  0.00000000  0.00000000       0.036
   0.07692308  0.07692308  0.00000000       0.036
   0.15384615  0.07692308  0.00000000       0.071
   0.23076923  0.07692308  0.00000000       0.071
   0.30769231  0.07692308  0.00000000       0.071
   0.38461538  0.07692308  0.00000000       0.071
   0.46153846  0.07692308  0.00000000       0.036
   0.15384615  0.15384615  0.00000000       0.036
   0.23076923  0.15384615  0.00000000       0.071
   0.30769231  0.15384615  0.00000000       0.071
   0.38461538  0.15384615  0.00000000       0.071
   0.23076923  0.23076923  0.00000000       0.036
   0.30769231  0.23076923  0.00000000       0.071
   0.38461538  0.23076923  0.00000000       0.036
   0.30769231  0.30769231  0.00000000       0.036
 
 position of ions in fractional coordinates (direct lattice) 
   0.33333300  0.66666700  0.23150333
   0.00000000  0.00000000  0.34909682
   0.33333300  0.66666700  0.40762600
   0.00000000  0.00000000  0.52454119
   0.33333300  0.66666700  0.58296493
   0.00000000  0.00000000  0.69998144
   0.33333300  0.66666700  0.75847692
   0.66666700  0.33333300  0.29060384
   0.66666700  0.33333300  0.46611740
   0.66666700  0.33333300  0.64145477
   0.66666700  0.33333300  0.81757794
   0.00000000  0.00000000  0.26146636
   0.00000000  0.00000000  0.43687608
   0.00000000  0.00000000  0.61220534
   0.00000000  0.00000000  0.78761496
   0.66666700  0.33333300  0.37838068
   0.66666700  0.33333300  0.55374978
   0.66666700  0.33333300  0.72922280
   0.33333300  0.66666700  0.31986312
   0.33333300  0.66666700  0.49533032
   0.33333300  0.66666700  0.67070484
   0.00000000  0.00000000  0.02454226
   0.00000000  0.00000000  0.19681818
   0.66666700  0.33333300  0.14187743
   0.33333300  0.66666700  0.08299108
   0.00000000  0.00000000  0.85226556
   0.66666700  0.33333300  0.96609164
   0.33333300  0.66666700  0.90720600
 
 position of ions in cartesian coordinates  (Angst):
   0.85843361  1.48685316 10.10935196
  -0.00000000  0.00000000 15.24445726
   0.85843361  1.48685316 17.80032562
  -0.00000000  0.00000000 22.90581047
   0.85843361  1.48685316 25.45707466
  -0.00000000  0.00000000 30.56698418
   0.85843361  1.48685316 33.12138131
   1.71686980 -0.00000149 12.69016912
   1.71686980 -0.00000149 20.35454413
   1.71686980 -0.00000149 28.01122518
   1.71686980 -0.00000149 35.70222075
  -0.00000000  0.00000000 11.41778584
  -0.00000000  0.00000000 19.07762600
  -0.00000000  0.00000000 26.73395321
  -0.00000000  0.00000000 34.39378908
   1.71686980 -0.00000149 16.52323258
   1.71686980 -0.00000149 24.18129966
   1.71686980 -0.00000149 31.84390426
   0.85843361  1.48685316 13.96787190
   0.85843361  1.48685316 21.63022219
   0.85843361  1.48685316 29.28852535
  -0.00000000  0.00000000  1.07171816
  -0.00000000  0.00000000  8.59471098
   1.71686980 -0.00000149  6.19554312
   0.85843361  1.48685316  3.62407752
  -0.00000000  0.00000000 37.21696964
   1.71686980 -0.00000149 42.18755863
   0.85843361  1.48685316 39.61612390
 


--------------------------------------------------------------------------------------------------------


 k-point  1 :   0.0000 0.0000 0.0000  plane waves:    9151
 k-point  2 :   0.0769 0.0000 0.0000  plane waves:    9145
 k-point  3 :   0.1538 0.0000 0.0000  plane waves:    9113
 k-point  4 :   0.2308 0.0000 0.0000  plane waves:    9054
 k-point  5 :   0.3077 0.0000 0.0000  plane waves:    8994
 k-point  6 :   0.3846 0.0000 0.0000  plane waves:    8970
 k-point  7 :   0.4615 0.0000 0.0000  plane waves:    8904
 k-point  8 :   0.0769 0.0769 0.0000  plane waves:    9117
 k-point  9 :   0.1538 0.0769 0.0000  plane waves:    9065
 k-point 10 :   0.2308 0.0769 0.0000  plane waves:    9027
 k-point 11 :   0.3077 0.0769 0.0000  plane waves:    9006
 k-point 12 :   0.3846 0.0769 0.0000  plane waves:    8946
 k-point 13 :   0.4615 0.0769 0.0000  plane waves:    8900
 k-point 14 :   0.1538 0.1538 0.0000  plane waves:    9023
 k-point 15 :   0.2308 0.1538 0.0000  plane waves:    9029
 k-point 16 :   0.3077 0.1538 0.0000  plane waves:    8979
 k-point 17 :   0.3846 0.1538 0.0000  plane waves:    8945
 k-point 18 :   0.2308 0.2308 0.0000  plane waves:    8995
 k-point 19 :   0.3077 0.2308 0.0000  plane waves:    8978
 k-point 20 :   0.3846 0.2308 0.0000  plane waves:    8974
 k-point 21 :   0.3077 0.3077 0.0000  plane waves:    8994

 maximum and minimum number of plane-waves per node :      2310     2206

 maximum number of plane-waves:      9151
 maximum index in each direction: 
   IXMAX=    5   IYMAX=    5   IZMAX=   81
   IXMIN=   -5   IYMIN=   -5   IZMIN=  -81

 NGX is ok and might be reduce to  22
 NGY is ok and might be reduce to  22
 NGZ is ok and might be reduce to 326

 parallel 3D FFT for wavefunctions:
    minimum data exchange during FFTs selected (reduces bandwidth)
 parallel 3D FFT for charge:
    minimum data exchange during FFTs selected (reduces bandwidth)


 total amount of memory used by VASP on root node   154446. kBytes
========================================================================

   base      :      30000. kBytes
   nonl-proj :      16114. kBytes
   fftplans  :      57932. kBytes
   grid      :      23224. kBytes
   one-center:         56. kBytes
   wavefun   :      27120. kBytes
 
     INWAV:  cpu time    0.00: real time    0.00
 Broyden mixing: mesh for mixing (old mesh)
   NGX = 11   NGY = 11   NGZ =163
  (NGX  = 48   NGY  = 48   NGZ  =672)
  gives a total of  19723 points

 initial charge density was supplied:
 charge density of overlapping atoms calculated
 number of electron     107.0000000 magnetization 
 keeping initial charge density in first step


--------------------------------------------------------------------------------------------------------


 Maximum index for augmentation-charges        23638 (set IRDMAX)


--------------------------------------------------------------------------------------------------------


 First call to EWALD:  gamma=   0.255
 Maximum number of real-space cells 7x 7x 1
 Maximum number of reciprocal cells 1x 1x15

 FEWALD executed in parallel
    FEWALD:  cpu time    0.00: real time    0.00


----------------------------------------- Iteration    1(   1)  ---------------------------------------


    POTLOK:  cpu time    0.11: real time    0.11
    SETDIJ:  cpu time    0.10: real time    0.10
     EDDAV:  cpu time    4.69: real time    4.70
       DOS:  cpu time    0.00: real time    0.00
    --------------------------------------------
      LOOP:  cpu time    4.90: real time    4.91

 eigenvalue-minimisations  :  2864
 total energy-change (2. order) : 0.5542927E+03  (-0.4846155E+04)
 number of electron     107.0000000 magnetization 
 augmentation part      107.0000000 magnetization 

 Free energy of the ion-electron system (eV)
  ---------------------------------------------------
  alpha Z        PSCENC =       151.00089520
  Ewald energy   TEWEN  =     11949.60826398
  -Hartree energ DENC   =    -17611.12886036
  -exchange      EXHF   =         0.00000000
  -V(xc)+E(xc)   XCENC  =      -363.40732763
  PAW double counting   =      4928.51229836    -4205.98855578
  entropy T*S    EENTRO =        -0.00564471
  eigenvalues    EBANDS =       344.62597073
  atomic energy  EATOM  =      5361.07568887
  ---------------------------------------------------
  free energy    TOTEN  =       554.29272867 eV

  energy without entropy =      554.29837338  energy(sigma->0) =      554.29555103


--------------------------------------------------------------------------------------------------------




----------------------------------------- Iteration    1(   2)  ---------------------------------------


     EDDAV:  cpu time    5.59: real time    5.60
       DOS:  cpu time    0.00: real time    0.00
    --------------------------------------------
      LOOP:  cpu time    5.59: real time    5.60

 eigenvalue-minimisations  :  3664
 total energy-change (2. order) :-0.6634668E+03  (-0.6322255E+03)
 number of electron     107.0000000 magnetization 
 augmentation part      107.0000000 magnetization 

 Free energy of the ion-electron system (eV)
  ---------------------------------------------------
  alpha Z        PSCENC =       151.00089520
  Ewald energy   TEWEN  =     11949.60826398
  -Hartree energ DENC   =    -17611.12886036
  -exchange      EXHF   =         0.00000000
  -V(xc)+E(xc)   XCENC  =      -363.40732763
  PAW double counting   =      4928.51229836    -4205.98855578
  entropy T*S    EENTRO =        -0.00421238
  eigenvalues    EBANDS =      -318.84229599
  atomic energy  EATOM  =      5361.07568887
  ---------------------------------------------------
  free energy    TOTEN  =      -109.17410572 eV

  energy without entropy =     -109.16989334  energy(sigma->0) =     -109.17199953


--------------------------------------------------------------------------------------------------------




----------------------------------------- Iteration    1(   3)  ---------------------------------------


     EDDAV:  cpu time    5.18: real time    5.19
       DOS:  cpu time    0.00: real time    0.00
    --------------------------------------------
      LOOP:  cpu time    5.18: real time    5.19

 eigenvalue-minimisations  :  3312
 total energy-change (2. order) :-0.5889362E+02  (-0.5853827E+02)
 number of electron     107.0000000 magnetization 
 augmentation part      107.0000000 magnetization 

 Free energy of the ion-electron system (eV)
  ---------------------------------------------------
  alpha Z        PSCENC =       151.00089520
  Ewald energy   TEWEN  =     11949.60826398
  -Hartree energ DENC   =    -17611.12886036
  -exchange      EXHF   =         0.00000000
  -V(xc)+E(xc)   XCENC  =      -363.40732763
  PAW double counting   =      4928.51229836    -4205.98855578
  entropy T*S    EENTRO =        -0.00609396
  eigenvalues    EBANDS =      -377.73403441
  atomic energy  EATOM  =      5361.07568887
  ---------------------------------------------------
  free energy    TOTEN  =      -168.06772572 eV

  energy without entropy =     -168.06163176  energy(sigma->0) =     -168.06467874


--------------------------------------------------------------------------------------------------------




----------------------------------------- Iteration    1(   4)  ---------------------------------------


     EDDAV:  cpu time    5.20: real time    5.20
       DOS:  cpu time    0.00: real time    0.00
    --------------------------------------------
      LOOP:  cpu time    5.20: real time    5.21

 eigenvalue-minimisations  :  3328
 total energy-change (2. order) :-0.7548786E+00  (-0.7536213E+00)
 number of electron     107.0000000 magnetization 
 augmentation part      107.0000000 magnetization 

 Free energy of the ion-electron system (eV)
  ---------------------------------------------------
  alpha Z        PSCENC =       151.00089520
  Ewald energy   TEWEN  =     11949.60826398
  -Hartree energ DENC   =    -17611.12886036
  -exchange      EXHF   =         0.00000000
  -V(xc)+E(xc)   XCENC  =      -363.40732763
  PAW double counting   =      4928.51229836    -4205.98855578
  entropy T*S    EENTRO =        -0.00628422
  eigenvalues    EBANDS =      -378.48872279
  atomic energy  EATOM  =      5361.07568887
  ---------------------------------------------------
  free energy    TOTEN  =      -168.82260435 eV

  energy without entropy =     -168.81632014  energy(sigma->0) =     -168.81946224


--------------------------------------------------------------------------------------------------------




----------------------------------------- Iteration    1(   5)  ---------------------------------------


     EDDAV:  cpu time    5.24: real time    5.25
       DOS:  cpu time    0.00: real time    0.00
    CHARGE:  cpu time    0.41: real time    0.41
    MIXING:  cpu time    0.00: real time    0.00
    --------------------------------------------
      LOOP:  cpu time    5.66: real time    5.66

 eigenvalue-minimisations  :  3376
 total energy-change (2. order) :-0.1138529E-01  (-0.1137861E-01)
 number of electron     107.0000001 magnetization 
 augmentation part        8.4789942 magnetization 

 Broyden mixing:
  rms(total) = 0.23923E+01    rms(broyden)= 0.23918E+01
  rms(prec ) = 0.24459E+01
  weight for this iteration     100.00

 Free energy of the ion-electron system (eV)
  ---------------------------------------------------
  alpha Z        PSCENC =       151.00089520
  Ewald energy   TEWEN  =     11949.60826398
  -Hartree energ DENC   =    -17611.12886036
  -exchange      EXHF   =         0.00000000
  -V(xc)+E(xc)   XCENC  =      -363.40732763
  PAW double counting   =      4928.51229836    -4205.98855578
  entropy T*S    EENTRO =        -0.00628418
  eigenvalues    EBANDS =      -378.50010812
  atomic energy  EATOM  =      5361.07568887
  ---------------------------------------------------
  free energy    TOTEN  =      -168.83398964 eV

  energy without entropy =     -168.82770547  energy(sigma->0) =     -168.83084755


--------------------------------------------------------------------------------------------------------




----------------------------------------- Iteration    1(   6)  ---------------------------------------


    POTLOK:  cpu time    0.11: real time    0.11
    SETDIJ:  cpu time    0.10: real time    0.10
     EDDAV:  cpu time    5.25: real time    5.25
       DOS:  cpu time    0.00: real time    0.00
    CHARGE:  cpu time    0.41: real time    0.41
    MIXING:  cpu time    0.00: real time    0.00
    --------------------------------------------
      LOOP:  cpu time    5.87: real time    5.87

 eigenvalue-minimisations  :  3352
 total energy-change (2. order) : 0.1676698E+02  (-0.9760388E+01)
 number of electron     107.0000002 magnetization 
 augmentation part        6.8329156 magnetization 

 Broyden mixing:
  rms(total) = 0.82808E+00    rms(broyden)= 0.82714E+00
  rms(prec ) = 0.83828E+00
  weight for this iteration     100.00

 eigenvalues of (default mixing * dielectric matrix)
  average eigenvalue GAMMA=   0.8308
  0.8308

 Free energy of the ion-electron system (eV)
  ---------------------------------------------------
  alpha Z        PSCENC =       151.00089520
  Ewald energy   TEWEN  =     11949.60826398
  -Hartree energ DENC   =    -17820.13721366
  -exchange      EXHF   =         0.00000000
  -V(xc)+E(xc)   XCENC  =      -348.95017061
  PAW double counting   =      5820.23524275    -5101.39823845
  entropy T*S    EENTRO =        -0.00503093
  eigenvalues    EBANDS =      -163.49644541
  atomic energy  EATOM  =      5361.07568887
  ---------------------------------------------------
  free energy    TOTEN  =      -152.06700825 eV

  energy without entropy =     -152.06197732  energy(sigma->0) =     -152.06449279


--------------------------------------------------------------------------------------------------------




----------------------------------------- Iteration    1(   7)  ---------------------------------------


    POTLOK:  cpu time    0.10: real time    0.10
    SETDIJ:  cpu time    0.10: real time    0.10
     EDDAV:  cpu time    5.06: real time    5.07
       DOS:  cpu time    0.00: real time    0.00
    CHARGE:  cpu time    0.41: real time    0.41
    MIXING:  cpu time    0.00: real time    0.00
    --------------------------------------------
      LOOP:  cpu time    5.68: real time    5.68

 eigenvalue-minimisations  :  3216
 total energy-change (2. order) : 0.1489173E+00  (-0.2575872E+00)
 number of electron     107.0000002 magnetization 
 augmentation part        6.8815123 magnetization 

 Broyden mixing:
  rms(total) = 0.50029E+00    rms(broyden)= 0.50027E+00
  rms(prec ) = 0.50535E+00
  weight for this iteration     100.00

 eigenvalues of (default mixing * dielectric matrix)
  average eigenvalue GAMMA=   1.5444
  0.9790  2.1097

 Free energy of the ion-electron system (eV)
  ---------------------------------------------------
  alpha Z        PSCENC =       151.00089520
  Ewald energy   TEWEN  =     11949.60826398
  -Hartree energ DENC   =    -17812.84217488
  -exchange      EXHF   =         0.00000000
  -V(xc)+E(xc)   XCENC  =      -348.78229065
  PAW double counting   =      6133.37977451    -5413.98894415
  entropy T*S    EENTRO =        -0.00369279
  eigenvalues    EBANDS =      -171.36561102
  atomic energy  EATOM  =      5361.07568887
  ---------------------------------------------------
  free energy    TOTEN  =      -151.91809091 eV

  energy without entropy =     -151.91439813  energy(sigma->0) =     -151.91624452


--------------------------------------------------------------------------------------------------------




----------------------------------------- Iteration    1(   8)  ---------------------------------------


    POTLOK:  cpu time    0.10: real time    0.10
    SETDIJ:  cpu time    0.10: real time    0.10
     EDDAV:  cpu time    5.20: real time    5.21
       DOS:  cpu time    0.00: real time    0.00
    CHARGE:  cpu time    0.40: real time    0.40
    MIXING:  cpu time    0.00: real time    0.00
    --------------------------------------------
      LOOP:  cpu time    5.81: real time    5.82

 eigenvalue-minimisations  :  3320
 total energy-change (2. order) : 0.8262961E-01  (-0.8921741E-01)
 number of electron     107.0000002 magnetization 
 augmentation part        6.9605431 magnetization 

 Broyden mixing:
  rms(total) = 0.13314E+00    rms(broyden)= 0.13307E+00
  rms(prec ) = 0.14267E+00
  weight for this iteration     100.00

 eigenvalues of (default mixing * dielectric matrix)
  average eigenvalue GAMMA=   1.3512
  2.2961  0.8787  0.8787

 Free energy of the ion-electron system (eV)
  ---------------------------------------------------
  alpha Z        PSCENC =       151.00089520
  Ewald energy   TEWEN  =     11949.60826398
  -Hartree energ DENC   =    -17815.38134023
  -exchange      EXHF   =         0.00000000
  -V(xc)+E(xc)   XCENC  =      -347.54893510
  PAW double counting   =      6596.36368783    -5876.54512828
  entropy T*S    EENTRO =        -0.00583460
  eigenvalues    EBANDS =      -170.40275897
  atomic energy  EATOM  =      5361.07568887
  ---------------------------------------------------
  free energy    TOTEN  =      -151.83546130 eV

  energy without entropy =     -151.82962670  energy(sigma->0) =     -151.83254400


--------------------------------------------------------------------------------------------------------




----------------------------------------- Iteration    1(   9)  ---------------------------------------


    POTLOK:  cpu time    0.10: real time    0.10
    SETDIJ:  cpu time    0.10: real time    0.10
     EDDAV:  cpu time    5.03: real time    5.04
       DOS:  cpu time    0.00: real time    0.00
    CHARGE:  cpu time    0.41: real time    0.41
    MIXING:  cpu time    0.00: real time    0.00
    --------------------------------------------
      LOOP:  cpu time    5.65: real time    5.65

 eigenvalue-minimisations  :  3180
 total energy-change (2. order) : 0.4266270E-01  (-0.1786188E-01)
 number of electron     107.0000002 magnetization 
 augmentation part        6.9248354 magnetization 

 Broyden mixing:
  rms(total) = 0.62764E-01    rms(broyden)= 0.62757E-01
  rms(prec ) = 0.64254E-01
  weight for this iteration     100.00

 eigenvalues of (default mixing * dielectric matrix)
  average eigenvalue GAMMA=   1.4438
  2.4744  1.4896  0.9056  0.9056

 Free energy of the ion-electron system (eV)
  ---------------------------------------------------
  alpha Z        PSCENC =       151.00089520
  Ewald energy   TEWEN  =     11949.60826398
  -Hartree energ DENC   =    -17820.85034156
  -exchange      EXHF   =         0.00000000
  -V(xc)+E(xc)   XCENC  =      -346.96295846
  PAW double counting   =      6645.65141648    -5925.89433948
  entropy T*S    EENTRO =        -0.00442570
  eigenvalues    EBANDS =      -165.41699794
  atomic energy  EATOM  =      5361.07568887
  ---------------------------------------------------
  free energy    TOTEN  =      -151.79279860 eV

  energy without entropy =     -151.78837290  energy(sigma->0) =     -151.79058575


--------------------------------------------------------------------------------------------------------




----------------------------------------- Iteration    1(  10)  ---------------------------------------


    POTLOK:  cpu time    0.11: real time    0.11
    SETDIJ:  cpu time    0.10: real time    0.10
     EDDAV:  cpu time    5.06: real time    5.07
       DOS:  cpu time    0.00: real time    0.00
    CHARGE:  cpu time    0.40: real time    0.41
    MIXING:  cpu time    0.00: real time    0.00
    --------------------------------------------
      LOOP:  cpu time    5.68: real time    5.69

 eigenvalue-minimisations  :  3192
 total energy-change (2. order) :-0.4496472E-02  (-0.1267663E-01)
 number of electron     107.0000002 magnetization 
 augmentation part        6.8958320 magnetization 

 Broyden mixing:
  rms(total) = 0.47912E-01    rms(broyden)= 0.47875E-01
  rms(prec ) = 0.51665E-01
  weight for this iteration     100.00

 eigenvalues of (default mixing * dielectric matrix)
  average eigenvalue GAMMA=   1.2539
  2.4957  1.3733  0.9524  0.7240  0.7240

 Free energy of the ion-electron system (eV)
  ---------------------------------------------------
  alpha Z        PSCENC =       151.00089520
  Ewald energy   TEWEN  =     11949.60826398
  -Hartree energ DENC   =    -17823.50412539
  -exchange      EXHF   =         0.00000000
  -V(xc)+E(xc)   XCENC  =      -346.63215003
  PAW double counting   =      6634.59042613    -5914.87558493
  entropy T*S    EENTRO =        -0.00435489
  eigenvalues    EBANDS =      -163.05635402
  atomic energy  EATOM  =      5361.07568887
  ---------------------------------------------------
  free energy    TOTEN  =      -151.79729507 eV

  energy without entropy =     -151.79294019  energy(sigma->0) =     -151.79511763


--------------------------------------------------------------------------------------------------------




----------------------------------------- Iteration    1(  11)  ---------------------------------------


    POTLOK:  cpu time    0.11: real time    0.11
    SETDIJ:  cpu time    0.11: real time    0.11
     EDDAV:  cpu time    5.45: real time    5.45
       DOS:  cpu time    0.00: real time    0.00
    CHARGE:  cpu time    0.41: real time    0.41
    MIXING:  cpu time    0.00: real time    0.00
    --------------------------------------------
      LOOP:  cpu time    6.08: real time    6.08

 eigenvalue-minimisations  :  3504
 total energy-change (2. order) : 0.4149636E-02  (-0.1653118E-02)
 number of electron     107.0000002 magnetization 
 augmentation part        6.9054198 magnetization 

 Broyden mixing:
  rms(total) = 0.27199E-01    rms(broyden)= 0.27198E-01
  rms(prec ) = 0.28516E-01
  weight for this iteration     100.00

 eigenvalues of (default mixing * dielectric matrix)
  average eigenvalue GAMMA=   1.3087
  2.5440  1.5438  0.9965  0.9965  1.0459  0.7253

 Free energy of the ion-electron system (eV)
  ---------------------------------------------------
  alpha Z        PSCENC =       151.00089520
  Ewald energy   TEWEN  =     11949.60826398
  -Hartree energ DENC   =    -17822.47366294
  -exchange      EXHF   =         0.00000000
  -V(xc)+E(xc)   XCENC  =      -346.66573536
  PAW double counting   =      6627.50576657    -5907.77802144
  entropy T*S    EENTRO =        -0.00434889
  eigenvalues    EBANDS =      -164.06199143
  atomic energy  EATOM  =      5361.07568887
  ---------------------------------------------------
  free energy    TOTEN  =      -151.79314544 eV

  energy without entropy =     -151.78879655  energy(sigma->0) =     -151.79097100


--------------------------------------------------------------------------------------------------------




----------------------------------------- Iteration    1(  12)  ---------------------------------------


    POTLOK:  cpu time    0.10: real time    0.10
    SETDIJ:  cpu time    0.10: real time    0.10
     EDDAV:  cpu time    5.16: real time    5.17
       DOS:  cpu time    0.00: real time    0.00
    CHARGE:  cpu time    0.41: real time    0.41
    MIXING:  cpu time    0.00: real time    0.00
    --------------------------------------------
      LOOP:  cpu time    5.78: real time    5.79

 eigenvalue-minimisations  :  3280
 total energy-change (2. order) : 0.2635539E-04  (-0.1720993E-02)
 number of electron     107.0000002 magnetization 
 augmentation part        6.9075200 magnetization 

 Broyden mixing:
  rms(total) = 0.16634E-01    rms(broyden)= 0.16618E-01
  rms(prec ) = 0.17757E-01
  weight for this iteration     100.00

 eigenvalues of (default mixing * dielectric matrix)
  average eigenvalue GAMMA=   1.3622
  2.7732  2.4854  0.8846  0.8846  0.9420  0.9420  0.6237

 Free energy of the ion-electron system (eV)
  ---------------------------------------------------
  alpha Z        PSCENC =       151.00089520
  Ewald energy   TEWEN  =     11949.60826398
  -Hartree energ DENC   =    -17822.16178031
  -exchange      EXHF   =         0.00000000
  -V(xc)+E(xc)   XCENC  =      -346.63043768
  PAW double counting   =      6608.13231782    -5888.41323015
  entropy T*S    EENTRO =        -0.00453919
  eigenvalues    EBANDS =      -164.40029764
  atomic energy  EATOM  =      5361.07568887
  ---------------------------------------------------
  free energy    TOTEN  =      -151.79311908 eV

  energy without entropy =     -151.78857989  energy(sigma->0) =     -151.79084949


--------------------------------------------------------------------------------------------------------




----------------------------------------- Iteration    1(  13)  ---------------------------------------


    POTLOK:  cpu time    0.10: real time    0.10
    SETDIJ:  cpu time    0.10: real time    0.10
     EDDAV:  cpu time    6.12: real time    6.12
       DOS:  cpu time    0.00: real time    0.00
    CHARGE:  cpu time    0.41: real time    0.41
    MIXING:  cpu time    0.00: real time    0.00
    --------------------------------------------
      LOOP:  cpu time    6.74: real time    6.75

 eigenvalue-minimisations  :  4076
 total energy-change (2. order) : 0.5477112E-03  (-0.1714172E-03)
 number of electron     107.0000002 magnetization 
 augmentation part        6.9098834 magnetization 

 Broyden mixing:
  rms(total) = 0.94925E-02    rms(broyden)= 0.94920E-02
  rms(prec ) = 0.10662E-01
  weight for this iteration     100.00

 eigenvalues of (default mixing * dielectric matrix)
  average eigenvalue GAMMA=   1.3405
  2.8795  2.4652  0.9236  0.9236  1.0139  0.9290  0.9290  0.6602

 Free energy of the ion-electron system (eV)
  ---------------------------------------------------
  alpha Z        PSCENC =       151.00089520
  Ewald energy   TEWEN  =     11949.60826398
  -Hartree energ DENC   =    -17821.54210659
  -exchange      EXHF   =         0.00000000
  -V(xc)+E(xc)   XCENC  =      -346.62803496
  PAW double counting   =      6588.99237357    -5869.27451630
  entropy T*S    EENTRO =        -0.00453656
  eigenvalues    EBANDS =      -165.02059859
  atomic energy  EATOM  =      5361.07568887
  ---------------------------------------------------
  free energy    TOTEN  =      -151.79257137 eV

  energy without entropy =     -151.78803481  energy(sigma->0) =     -151.79030309


--------------------------------------------------------------------------------------------------------




----------------------------------------- Iteration    1(  14)  ---------------------------------------


    POTLOK:  cpu time    0.10: real time    0.10
    SETDIJ:  cpu time    0.10: real time    0.10
     EDDAV:  cpu time    5.43: real time    5.44
       DOS:  cpu time    0.00: real time    0.00
    CHARGE:  cpu time    0.41: real time    0.41
    MIXING:  cpu time    0.01: real time    0.01
    --------------------------------------------
      LOOP:  cpu time    6.05: real time    6.06

 eigenvalue-minimisations  :  3504
 total energy-change (2. order) : 0.2119152E-03  (-0.1295431E-03)
 number of electron     107.0000002 magnetization 
 augmentation part        6.9096942 magnetization 

 Broyden mixing:
  rms(total) = 0.26975E-02    rms(broyden)= 0.26913E-02
  rms(prec ) = 0.50244E-02
  weight for this iteration     100.00

 eigenvalues of (default mixing * dielectric matrix)
  average eigenvalue GAMMA=   1.3468
  2.9784  2.5401  0.9151  0.9151  1.1160  1.1160  0.9372  0.9372  0.6663

 Free energy of the ion-electron system (eV)
  ---------------------------------------------------
  alpha Z        PSCENC =       151.00089520
  Ewald energy   TEWEN  =     11949.60826398
  -Hartree energ DENC   =    -17821.33631589
  -exchange      EXHF   =         0.00000000
  -V(xc)+E(xc)   XCENC  =      -346.62543123
  PAW double counting   =      6587.67210956    -5867.95376563
  entropy T*S    EENTRO =        -0.00452682
  eigenvalues    EBANDS =      -165.22927750
  atomic energy  EATOM  =      5361.07568887
  ---------------------------------------------------
  free energy    TOTEN  =      -151.79235946 eV

  energy without entropy =     -151.78783264  energy(sigma->0) =     -151.79009605


--------------------------------------------------------------------------------------------------------




----------------------------------------- Iteration    1(  15)  ---------------------------------------


    POTLOK:  cpu time    0.10: real time    0.10
    SETDIJ:  cpu time    0.10: real time    0.10
     EDDAV:  cpu time    5.99: real time    6.00
       DOS:  cpu time    0.00: real time    0.00
    CHARGE:  cpu time    0.42: real time    0.42
    MIXING:  cpu time    0.00: real time    0.00
    --------------------------------------------
      LOOP:  cpu time    6.62: real time    6.63

 eigenvalue-minimisations  :  3964
 total energy-change (2. order) : 0.2537612E-03  (-0.2170989E-04)
 number of electron     107.0000002 magnetization 
 augmentation part        6.9100582 magnetization 

 Broyden mixing:
  rms(total) = 0.29069E-02    rms(broyden)= 0.29066E-02
  rms(prec ) = 0.43885E-02
  weight for this iteration     100.00

 eigenvalues of (default mixing * dielectric matrix)
  average eigenvalue GAMMA=   1.4397
  2.8698  2.6413  2.6413  0.9057  0.9057  0.9803  0.9803  0.9024  0.9024  0.6676

 Free energy of the ion-electron system (eV)
  ---------------------------------------------------
  alpha Z        PSCENC =       151.00089520
  Ewald energy   TEWEN  =     11949.60826398
  -Hartree energ DENC   =    -17820.79263757
  -exchange      EXHF   =         0.00000000
  -V(xc)+E(xc)   XCENC  =      -346.62869583
  PAW double counting   =      6586.33584649    -5866.61623839
  entropy T*S    EENTRO =        -0.00457717
  eigenvalues    EBANDS =      -165.77065128
  atomic energy  EATOM  =      5361.07568887
  ---------------------------------------------------
  free energy    TOTEN  =      -151.79210570 eV

  energy without entropy =     -151.78752852  energy(sigma->0) =     -151.78981711


--------------------------------------------------------------------------------------------------------




----------------------------------------- Iteration    1(  16)  ---------------------------------------


    POTLOK:  cpu time    0.10: real time    0.10
    SETDIJ:  cpu time    0.10: real time    0.10
     EDDAV:  cpu time    6.13: real time    6.14
       DOS:  cpu time    0.00: real time    0.00
    CHARGE:  cpu time    0.41: real time    0.41
    MIXING:  cpu time    0.00: real time    0.00
    --------------------------------------------
      LOOP:  cpu time    6.75: real time    6.76

 eigenvalue-minimisations  :  4120
 total energy-change (2. order) : 0.1900530E-03  (-0.2347345E-04)
 number of electron     107.0000002 magnetization 
 augmentation part        6.9095796 magnetization 

 Broyden mixing:
  rms(total) = 0.22705E-02    rms(broyden)= 0.22699E-02
  rms(prec ) = 0.34776E-02
  weight for this iteration     100.00

 eigenvalues of (default mixing * dielectric matrix)
  average eigenvalue GAMMA=   1.4487
  3.3912  2.8162  2.4891  0.9154  0.9154  0.9438  0.9438  0.9494  0.9533  0.9533
  0.6647

 Free energy of the ion-electron system (eV)
  ---------------------------------------------------
  alpha Z        PSCENC =       151.00089520
  Ewald energy   TEWEN  =     11949.60826398
  -Hartree energ DENC   =    -17820.43704619
  -exchange      EXHF   =         0.00000000
  -V(xc)+E(xc)   XCENC  =      -346.62248216
  PAW double counting   =      6589.37128880    -5869.65123690
  entropy T*S    EENTRO =        -0.00459992
  eigenvalues    EBANDS =      -166.13268732
  atomic energy  EATOM  =      5361.07568887
  ---------------------------------------------------
  free energy    TOTEN  =      -151.79191564 eV

  energy without entropy =     -151.78731573  energy(sigma->0) =     -151.78961568


--------------------------------------------------------------------------------------------------------




----------------------------------------- Iteration    1(  17)  ---------------------------------------


    POTLOK:  cpu time    0.10: real time    0.10
    SETDIJ:  cpu time    0.10: real time    0.10
     EDDAV:  cpu time    5.78: real time    5.79
       DOS:  cpu time    0.00: real time    0.00
    CHARGE:  cpu time    0.41: real time    0.41
    MIXING:  cpu time    0.00: real time    0.00
    --------------------------------------------
      LOOP:  cpu time    6.40: real time    6.41

 eigenvalue-minimisations  :  3804
 total energy-change (2. order) : 0.9597560E-04  (-0.2903600E-04)
 number of electron     107.0000002 magnetization 
 augmentation part        6.9091674 magnetization 

 Broyden mixing:
  rms(total) = 0.14436E-02    rms(broyden)= 0.14426E-02
  rms(prec ) = 0.25517E-02
  weight for this iteration     100.00

 eigenvalues of (default mixing * dielectric matrix)
  average eigenvalue GAMMA=   1.5423
  4.3624  2.8497  2.4415  1.6795  0.9058  0.9058  1.0109  1.0109  0.9472  0.9472
  0.6686  0.7782

 Free energy of the ion-electron system (eV)
  ---------------------------------------------------
  alpha Z        PSCENC =       151.00089520
  Ewald energy   TEWEN  =     11949.60826398
  -Hartree energ DENC   =    -17820.11075911
  -exchange      EXHF   =         0.00000000
  -V(xc)+E(xc)   XCENC  =      -346.61973909
  PAW double counting   =      6589.04921647    -5869.32962862
  entropy T*S    EENTRO =        -0.00461112
  eigenvalues    EBANDS =      -166.46114626
  atomic energy  EATOM  =      5361.07568887
  ---------------------------------------------------
  free energy    TOTEN  =      -151.79181967 eV

  energy without entropy =     -151.78720854  energy(sigma->0) =     -151.78951410


--------------------------------------------------------------------------------------------------------




----------------------------------------- Iteration    1(  18)  ---------------------------------------


    POTLOK:  cpu time    0.10: real time    0.10
    SETDIJ:  cpu time    0.10: real time    0.10
     EDDAV:  cpu time    6.16: real time    6.17
       DOS:  cpu time    0.00: real time    0.00
    CHARGE:  cpu time    0.41: real time    0.41
    MIXING:  cpu time    0.01: real time    0.01
    --------------------------------------------
      LOOP:  cpu time    6.79: real time    6.79

 eigenvalue-minimisations  :  4428
 total energy-change (2. order) : 0.1031255E-03  (-0.1578061E-04)
 number of electron     107.0000002 magnetization 
 augmentation part        6.9093280 magnetization 

 Broyden mixing:
  rms(total) = 0.16602E-02    rms(broyden)= 0.16597E-02
  rms(prec ) = 0.22775E-02
  weight for this iteration     100.00

 eigenvalues of (default mixing * dielectric matrix)
  average eigenvalue GAMMA=   1.6905
  5.9865  2.9181  2.4538  2.4538  0.8969  0.8969  1.0337  1.0337  0.6667  0.8885
  0.8885  0.9297  0.9297

 Free energy of the ion-electron system (eV)
  ---------------------------------------------------
  alpha Z        PSCENC =       151.00089520
  Ewald energy   TEWEN  =     11949.60826398
  -Hartree energ DENC   =    -17819.56058193
  -exchange      EXHF   =         0.00000000
  -V(xc)+E(xc)   XCENC  =      -346.62119162
  PAW double counting   =      6589.02494018    -5869.30461434
  entropy T*S    EENTRO =        -0.00462975
  eigenvalues    EBANDS =      -167.01048714
  atomic energy  EATOM  =      5361.07568887
  ---------------------------------------------------
  free energy    TOTEN  =      -151.79171654 eV

  energy without entropy =     -151.78708679  energy(sigma->0) =     -151.78940167


--------------------------------------------------------------------------------------------------------




----------------------------------------- Iteration    1(  19)  ---------------------------------------


    POTLOK:  cpu time    0.11: real time    0.11
    SETDIJ:  cpu time    0.11: real time    0.11
     EDDAV:  cpu time    5.10: real time    5.10
       DOS:  cpu time    0.00: real time    0.00
    CHARGE:  cpu time    0.40: real time    0.40
    MIXING:  cpu time    0.01: real time    0.01
    --------------------------------------------
      LOOP:  cpu time    5.73: real time    5.73

 eigenvalue-minimisations  :  3408
 total energy-change (2. order) : 0.3721370E-04  (-0.1329474E-04)
 number of electron     107.0000002 magnetization 
 augmentation part        6.9095764 magnetization 

 Broyden mixing:
  rms(total) = 0.17352E-02    rms(broyden)= 0.17351E-02
  rms(prec ) = 0.21603E-02
  weight for this iteration     100.00

 eigenvalues of (default mixing * dielectric matrix)
  average eigenvalue GAMMA=   1.5945
  5.7693  2.9781  2.4500  2.4500  0.9012  0.9012  1.0978  1.0978  0.9309  0.9309
  0.8856  0.8856  0.6666  0.3779

 Free energy of the ion-electron system (eV)
  ---------------------------------------------------
  alpha Z        PSCENC =       151.00089520
  Ewald energy   TEWEN  =     11949.60826398
  -Hartree energ DENC   =    -17819.30796884
  -exchange      EXHF   =         0.00000000
  -V(xc)+E(xc)   XCENC  =      -346.62074920
  PAW double counting   =      6589.14987384    -5869.42940265
  entropy T*S    EENTRO =        -0.00463908
  eigenvalues    EBANDS =      -167.26364146
  atomic energy  EATOM  =      5361.07568887
  ---------------------------------------------------
  free energy    TOTEN  =      -151.79167933 eV

  energy without entropy =     -151.78704024  energy(sigma->0) =     -151.78935979


--------------------------------------------------------------------------------------------------------




----------------------------------------- Iteration    1(  20)  ---------------------------------------


    POTLOK:  cpu time    0.10: real time    0.10
    SETDIJ:  cpu time    0.11: real time    0.11
     EDDAV:  cpu time    6.52: real time    6.53
       DOS:  cpu time    0.00: real time    0.00
    CHARGE:  cpu time    0.41: real time    0.41
    MIXING:  cpu time    0.01: real time    0.01
    --------------------------------------------
      LOOP:  cpu time    7.16: real time    7.16

 eigenvalue-minimisations  :  4436
 total energy-change (2. order) : 0.4248855E-04  (-0.2203953E-04)
 number of electron     107.0000002 magnetization 
 augmentation part        6.9093666 magnetization 

 Broyden mixing:
  rms(total) = 0.20443E-02    rms(broyden)= 0.20437E-02
  rms(prec ) = 0.22585E-02
  weight for this iteration     100.00

 eigenvalues of (default mixing * dielectric matrix)
  average eigenvalue GAMMA=   1.6551
  6.6520  3.0191  2.5896  2.4352  1.0170  1.0170  0.8981  0.8981  0.9490  0.9490
  0.6667  0.9512  0.9512  0.9168  0.9168

 Free energy of the ion-electron system (eV)
  ---------------------------------------------------
  alpha Z        PSCENC =       151.00089520
  Ewald energy   TEWEN  =     11949.60826398
  -Hartree energ DENC   =    -17819.18742472
  -exchange      EXHF   =         0.00000000
  -V(xc)+E(xc)   XCENC  =      -346.61794575
  PAW double counting   =      6589.44079859    -5869.72136346
  entropy T*S    EENTRO =        -0.00464557
  eigenvalues    EBANDS =      -167.38590399
  atomic energy  EATOM  =      5361.07568887
  ---------------------------------------------------
  free energy    TOTEN  =      -151.79163684 eV

  energy without entropy =     -151.78699127  energy(sigma->0) =     -151.78931405


--------------------------------------------------------------------------------------------------------




----------------------------------------- Iteration    1(  21)  ---------------------------------------


    POTLOK:  cpu time    0.10: real time    0.10
    SETDIJ:  cpu time    0.10: real time    0.10
     EDDAV:  cpu time    5.19: real time    5.19
       DOS:  cpu time    0.00: real time    0.00
    CHARGE:  cpu time    0.41: real time    0.41
    MIXING:  cpu time    0.01: real time    0.01
    --------------------------------------------
      LOOP:  cpu time    5.82: real time    5.82

 eigenvalue-minimisations  :  3300
 total energy-change (2. order) : 0.4299359E-05  (-0.1415885E-04)
 number of electron     107.0000002 magnetization 
 augmentation part        6.9093990 magnetization 

 Broyden mixing:
  rms(total) = 0.31315E-02    rms(broyden)= 0.31313E-02
  rms(prec ) = 0.32455E-02
  weight for this iteration     100.00

 eigenvalues of (default mixing * dielectric matrix)
  average eigenvalue GAMMA=   1.6409
  6.9105  2.9912  2.6887  2.4202  1.2902  1.2902  0.9040  0.9040  0.9265  0.9265
  0.9777  0.9777  0.9353  0.9353  0.6666  0.5093

 Free energy of the ion-electron system (eV)
  ---------------------------------------------------
  alpha Z        PSCENC =       151.00089520
  Ewald energy   TEWEN  =     11949.60826398
  -Hartree energ DENC   =    -17819.04521640
  -exchange      EXHF   =         0.00000000
  -V(xc)+E(xc)   XCENC  =      -346.61820766
  PAW double counting   =      6589.66021048    -5869.94064673
  entropy T*S    EENTRO =        -0.00465451
  eigenvalues    EBANDS =      -167.52796577
  atomic energy  EATOM  =      5361.07568887
  ---------------------------------------------------
  free energy    TOTEN  =      -151.79163254 eV

  energy without entropy =     -151.78697803  energy(sigma->0) =     -151.78930528


--------------------------------------------------------------------------------------------------------




----------------------------------------- Iteration    1(  22)  ---------------------------------------


    POTLOK:  cpu time    0.10: real time    0.10
    SETDIJ:  cpu time    0.11: real time    0.11
     EDDAV:  cpu time    4.84: real time    4.84
       DOS:  cpu time    0.00: real time    0.00
    CHARGE:  cpu time    0.41: real time    0.41
    MIXING:  cpu time    0.01: real time    0.01
    --------------------------------------------
      LOOP:  cpu time    5.47: real time    5.47

 eigenvalue-minimisations  :  3008
 total energy-change (2. order) : 0.3921397E-04  (-0.4725740E-05)
 number of electron     107.0000002 magnetization 
 augmentation part        6.9095320 magnetization 

 Broyden mixing:
  rms(total) = 0.15279E-02    rms(broyden)= 0.15278E-02
  rms(prec ) = 0.16156E-02
  weight for this iteration     100.00

 eigenvalues of (default mixing * dielectric matrix)
  average eigenvalue GAMMA=   1.9852
 10.5235  4.5373  2.8234  2.3162  2.3162  1.1193  1.1193  0.9076  0.9076  0.6670
  1.0436  1.0436  0.8900  0.8900  0.9039  0.9039  0.8356

 Free energy of the ion-electron system (eV)
  ---------------------------------------------------
  alpha Z        PSCENC =       151.00089520
  Ewald energy   TEWEN  =     11949.60826398
  -Hartree energ DENC   =    -17818.85887708
  -exchange      EXHF   =         0.00000000
  -V(xc)+E(xc)   XCENC  =      -346.61899715
  PAW double counting   =      6589.53579515    -5869.81561721
  entropy T*S    EENTRO =        -0.00465712
  eigenvalues    EBANDS =      -167.71408797
  atomic energy  EATOM  =      5361.07568887
  ---------------------------------------------------
  free energy    TOTEN  =      -151.79159333 eV

  energy without entropy =     -151.78693620  energy(sigma->0) =     -151.78926477


--------------------------------------------------------------------------------------------------------




----------------------------------------- Iteration    1(  23)  ---------------------------------------


    POTLOK:  cpu time    0.10: real time    0.10
    SETDIJ:  cpu time    0.10: real time    0.10
     EDDAV:  cpu time    5.09: real time    5.09
       DOS:  cpu time    0.00: real time    0.00
    CHARGE:  cpu time    0.41: real time    0.41
    MIXING:  cpu time    0.01: real time    0.01
    --------------------------------------------
      LOOP:  cpu time    5.71: real time    5.72

 eigenvalue-minimisations  :  3184
 total energy-change (2. order) : 0.1209790E-04  (-0.4481271E-05)
 number of electron     107.0000002 magnetization 
 augmentation part        6.9094503 magnetization 

 Broyden mixing:
  rms(total) = 0.63084E-03    rms(broyden)= 0.63042E-03
  rms(prec ) = 0.66960E-03
  weight for this iteration     100.00

 eigenvalues of (default mixing * dielectric matrix)
  average eigenvalue GAMMA=   1.9079
 10.2254  4.7500  2.8481  2.3056  2.3056  1.1145  1.1145  0.9069  0.9069  1.0855
  1.0855  0.9734  0.9734  0.8367  0.8367  0.8352  0.6671  0.5711

 Free energy of the ion-electron system (eV)
  ---------------------------------------------------
  alpha Z        PSCENC =       151.00089520
  Ewald energy   TEWEN  =     11949.60826398
  -Hartree energ DENC   =    -17818.67243480
  -exchange      EXHF   =         0.00000000
  -V(xc)+E(xc)   XCENC  =      -346.61841402
  PAW double counting   =      6589.77520381    -5870.05511311
  entropy T*S    EENTRO =        -0.00465479
  eigenvalues    EBANDS =      -167.90101637
  atomic energy  EATOM  =      5361.07568887
  ---------------------------------------------------
  free energy    TOTEN  =      -151.79158123 eV

  energy without entropy =     -151.78692643  energy(sigma->0) =     -151.78925383


--------------------------------------------------------------------------------------------------------




----------------------------------------- Iteration    1(  24)  ---------------------------------------


    POTLOK:  cpu time    0.11: real time    0.11
    SETDIJ:  cpu time    0.10: real time    0.10
     EDDAV:  cpu time    4.83: real time    4.83
       DOS:  cpu time    0.00: real time    0.00
    CHARGE:  cpu time    0.41: real time    0.41
    MIXING:  cpu time    0.01: real time    0.01
    --------------------------------------------
      LOOP:  cpu time    5.45: real time    5.46

 eigenvalue-minimisations  :  2996
 total energy-change (2. order) :-0.1137353E-04  (-0.1017326E-04)
 number of electron     107.0000002 magnetization 
 augmentation part        6.9094667 magnetization 

 Broyden mixing:
  rms(total) = 0.10669E-02    rms(broyden)= 0.10666E-02
  rms(prec ) = 0.10855E-02
  weight for this iteration     100.00

 eigenvalues of (default mixing * dielectric matrix)
  average eigenvalue GAMMA=   1.9561
 11.1737  5.2943  2.7671  2.3402  2.3402  1.2247  1.2247  1.2646  1.2646  0.9095
  0.9095  0.9457  0.9457  0.6669  0.8261  0.8136  0.8136  0.7206  0.7206

 Free energy of the ion-electron system (eV)
  ---------------------------------------------------
  alpha Z        PSCENC =       151.00089520
  Ewald energy   TEWEN  =     11949.60826398
  -Hartree energ DENC   =    -17818.64318139
  -exchange      EXHF   =         0.00000000
  -V(xc)+E(xc)   XCENC  =      -346.61824816
  PAW double counting   =      6589.57430511    -5869.85456315
  entropy T*S    EENTRO =        -0.00465473
  eigenvalues    EBANDS =      -167.93009834
  atomic energy  EATOM  =      5361.07568887
[...]
     23       0.1712      2.00000
     24       0.2856      2.00000
     25       0.4523      2.00000
     26       0.5928      2.00000
     27       0.7326      2.00000
     28       0.8021      2.00000
     29       0.8368      2.00000
     30       0.9096      2.00000
     31       0.9513      2.00000
     32       1.0112      2.00000
     33       1.0312      2.00000
     34       1.1239      2.00000
     35       1.2148      2.00000
     36       1.2899      2.00000
     37       1.4338      2.00000
     38       1.5669      2.00000
     39       1.6456      2.00000
     40       1.7004      2.00000
     41       1.7325      2.00000
     42       1.7962      2.00000
     43       1.8507      2.00000
     44       1.9425      2.00000
     45       2.0344      2.00000
     46       2.0951      2.00000
     47       2.5841      2.00000
     48       3.3790      2.00000
     49       4.4509      2.00000
     50       4.9571      2.00000
     51       5.1775      2.00000
     52       5.4439      2.00000
     53       5.9507      2.00000
     54       6.5100      1.99999
     55       6.5826      1.97943
     56       6.6771      0.72207
     57       7.1329      0.00000
     58       7.4069      0.00000
     59       7.6210      0.00000
     60       8.2298      0.00000
     61       8.8237      0.00000
     62       8.9662      0.00000
     63       9.2603      0.00000
     64       9.8950      0.00000
     65      10.2493      0.00000
     66      10.5451      0.00000
     67      11.2714      0.00000
     68      11.5332      0.00000

 k-point    20 :       0.3846    0.2308    0.0000
  band No.  band energies     occupation 
      1     -12.8526      2.00000
      2     -12.8416      2.00000
      3     -12.8304      2.00000
      4     -12.8161      2.00000
      5     -12.7981      2.00000
      6     -12.7790      2.00000
      7     -12.7598      2.00000
      8     -12.7426      2.00000
      9     -12.7266      2.00000
     10     -12.6351      2.00000
     11     -12.6116      2.00000
     12      -0.9720      2.00000
     13      -0.9179      2.00000
     14      -0.8221      2.00000
     15      -0.7081      2.00000
     16      -0.5929      2.00000
     17      -0.5414      2.00000
     18      -0.5274      2.00000
     19      -0.4966      2.00000
     20      -0.4879      2.00000
     21      -0.4270      2.00000
     22      -0.4234      2.00000
     23       0.3747      2.00000
     24       0.3985      2.00000
     25       0.4503      2.00000
     26       0.5070      2.00000
     27       0.5182      2.00000
     28       0.5680      2.00000
     29       0.5782      2.00000
     30       0.6593      2.00000
     31       0.8154      2.00000
     32       0.9508      2.00000
     33       1.0583      2.00000
     34       1.1258      2.00000
     35       1.1551      2.00000
     36       1.4378      2.00000
     37       1.4711      2.00000
     38       1.5279      2.00000
     39       1.5663      2.00000
     40       1.6569      2.00000
     41       1.7758      2.00000
     42       1.8461      2.00000
     43       1.8952      2.00000
     44       1.8987      2.00000
     45       3.1977      2.00000
     46       3.2347      2.00000
     47       3.4454      2.00000
     48       3.5364      2.00000
     49       3.8869      2.00000
     50       4.0508      2.00000
     51       4.6248      2.00000
     52       4.8606      2.00000
     53       5.7573      2.00000
     54       6.1598      2.00000
     55       6.4266      2.00000
     56       6.6338      1.61393
     57       6.7718      0.00240
     58       7.2615      0.00000
     59       7.6880      0.00000
     60       8.1368      0.00000
     61       8.3911      0.00000
     62       8.4991      0.00000
     63       9.0919      0.00000
     64      10.0427      0.00000
     65      10.2005      0.00000
     66      10.2589      0.00000
     67      11.2089      0.00000
     68      11.4825      0.00000

 k-point    21 :       0.3077    0.3077    0.0000
  band No.  band energies     occupation 
      1     -12.8217      2.00000
      2     -12.8093      2.00000
      3     -12.8010      2.00000
      4     -12.7909      2.00000
      5     -12.7780      2.00000
      6     -12.7647      2.00000
      7     -12.7515      2.00000
      8     -12.7395      2.00000
      9     -12.7276      2.00000
     10     -12.6185      2.00000
     11     -12.5948      2.00000
     12      -0.6233      2.00000
     13      -0.6118      2.00000
     14      -0.5848      2.00000
     15      -0.5549      2.00000
     16      -0.5117      2.00000
     17      -0.4555      2.00000
     18      -0.4260      2.00000
     19      -0.3273      2.00000
     20      -0.2073      2.00000
     21      -0.1767      2.00000
     22      -0.1398      2.00000
     23      -0.0623      2.00000
     24       0.0617      2.00000
     25       0.1420      2.00000
     26       0.1930      2.00000
     27       0.2688      2.00000
     28       0.3257      2.00000
     29       0.3549      2.00000
     30       0.4820      2.00000
     31       0.4950      2.00000
     32       0.6263      2.00000
     33       0.6303      2.00000
     34       1.1149      2.00000
     35       1.1361      2.00000
     36       1.4415      2.00000
     37       1.5393      2.00000
     38       1.6210      2.00000
     39       1.6483      2.00000
     40       1.6801      2.00000
     41       1.7178      2.00000
     42       1.7180      2.00000
     43       1.7701      2.00000
     44       1.8624      2.00000
     45       3.0968      2.00000
     46       3.3831      2.00000
     47       3.8365      2.00000
     48       4.5809      2.00000
     49       4.6966      2.00000
     50       4.7460      2.00000
     51       4.9304      2.00000
     52       4.9723      2.00000
     53       5.3169      2.00000
     54       5.4083      2.00000
     55       5.5920      2.00000
     56       6.0712      2.00000
     57       6.6642      1.00635
     58       7.2498      0.00000
     59       7.4330      0.00000
     60       7.6738      0.00000
     61       8.2431      0.00000
     62       8.6906      0.00000
     63       8.7366      0.00000
     64       9.6816      0.00000
     65       9.6941      0.00000
     66      10.1309      0.00000
     67      11.3350      0.00000
     68      11.3645      0.00000


--------------------------------------------------------------------------------------------------------


 soft charge-density along one line, spin component           1
         0         1         2         3         4         5         6         7         8         9
 total charge-density along one line
 
 pseudopotential strength for first ion, spin component:           1
 12.149   0.000 -14.780   0.000  -0.000   0.000  -0.007   0.000   0.000   0.000   0.000   0.000   0.008   0.000  -0.000   0.000
-14.780   0.000  18.001   0.000   0.000   0.000   0.008   0.000  -0.000   0.000  -0.000   0.000  -0.011   0.000   0.000   0.000
 -0.000   0.000   0.000   0.000  -8.296   0.000  -0.000   0.000   0.000   0.000   9.930   0.000   0.000   0.000  -0.000   0.000
 -0.007   0.000   0.008   0.000  -0.000   0.000  -8.309   0.000   0.000   0.000   0.000   0.000   9.948   0.000  -0.000   0.000
  0.000   0.000  -0.000   0.000   0.000   0.000   0.000   0.000  -8.296   0.000  -0.000   0.000  -0.000   0.000   9.930   0.000
  0.000   0.000  -0.000   0.000   9.930   0.000   0.000   0.000  -0.000   0.000 -11.725   0.000  -0.000   0.000   0.000   0.000
  0.008   0.000  -0.011   0.000   0.000   0.000   9.948   0.000  -0.000   0.000  -0.000   0.000 -11.748   0.000   0.000   0.000
 -0.000   0.000   0.000   0.000  -0.000   0.000  -0.000   0.000   9.930   0.000   0.000   0.000   0.000   0.000 -11.725   0.000
 total augmentation occupancy for first ion, spin component:           1
  2.513   0.319   0.000   0.038  -0.000   0.000   0.005  -0.000
  0.319   0.083   0.000   0.021  -0.000  -0.000  -0.008   0.000
  0.000   0.000   2.060  -0.000  -0.000   0.229   0.000  -0.000
  0.038   0.021  -0.000   2.052  -0.000   0.000   0.240  -0.000
 -0.000  -0.000  -0.000  -0.000   2.060  -0.000  -0.000   0.229
 -0.000  -0.000   0.229   0.000  -0.000   0.029   0.000  -0.000
  0.005  -0.008   0.000   0.240  -0.000   0.000   0.035  -0.000
 -0.000   0.000  -0.000  -0.000   0.229  -0.000  -0.000   0.029


------------------------ aborting loop because EDIFF is reached ----------------------------------------


    CHARGE:  cpu time    0.43: real time    0.43
    FORLOC:  cpu time    0.04: real time    0.04
    FORNL :  cpu time    3.44: real time    3.44
    STRESS:  cpu time    4.55: real time    4.56
    FORCOR:  cpu time    0.14: real time    0.14
    FORHAR:  cpu time    0.06: real time    0.06
    MIXING:  cpu time    0.00: real time    0.00
    OFIELD:  cpu time    0.00: real time    0.00

  FORCE on cell =-STRESS in cart. coord.  units (eV):
  Direction    XX          YY          ZZ          XY          YZ          ZX
  --------------------------------------------------------------------------------------
  Alpha Z   151.00090   151.00090   151.00090
  Ewald   15660.13098 15660.13147-18553.54650    -0.00017     0.00001    -0.00014
  Hartree 17600.27165 17600.27155-16568.32547    -0.00000     0.00000     0.00004
  E(xc)    -449.56403  -449.56404  -449.15725    -0.00000     0.00000    -0.00000
  Local  -34597.56986-34597.56930 33791.56090    -0.00019    -0.00001     0.00004
  n-local   -75.62403   -91.72406   -84.39113     3.42871    -1.57630     4.64785
  augment    66.82014    66.81987    65.73735     0.00019     0.00000     0.00000
  Kinetic  1652.85627  1640.60609  1625.28768    -2.05120     0.02812     0.15437
  Fock        0.00000     0.00000     0.00000     0.00000     0.00000     0.00000
  -------------------------------------------------------------------------------------
  Total      -5.85275    -5.85275   -21.83353     0.00000     0.00000     0.00000
  in kB     -28.04005   -28.04004  -104.60258     0.00000     0.00000     0.00000
  external pressure =      -53.56 kB  Pullay stress =        0.00 kB


 VOLUME and BASIS-vectors are now :
 -----------------------------------------------------------------------------
  energy-cutoff  :      520.00
  volume of cell :      334.42
      direct lattice vectors                 reciprocal lattice vectors
     2.575303410 -1.486851677  0.000000000     0.388303761  0.000000000  0.000000000
     0.000000000  2.973703354  0.000000000     0.194151881  0.336281021  0.000000000
    -0.000000000  0.000000000 43.668278195     0.000000000  0.000000000  0.022899918

  length of vectors
     2.973704014  2.973703354 43.668278195     0.388303761  0.388303847  0.022899918


 FORCES acting on ions
    electron-ion (+dipol)            ewald-force                    non-local-force                 convergence-correction
 -----------------------------------------------------------------------------------------------
   0.587E-03 -.102E-02 0.125E+04   0.493E-04 -.577E-04 -.125E+04   -.104E-17 0.139E-16 0.264E+01   -.140E-07 0.245E-07 0.255E-01
   -.471E-03 0.815E-03 0.760E+03   -.563E-07 0.624E-07 -.760E+03   0.220E-18 -.136E-19 -.105E-01   -.813E-09 0.190E-08 0.673E-01
   0.583E-03 -.101E-02 0.506E+03   0.535E-04 -.926E-04 -.506E+03   0.386E-19 0.102E-19 -.234E-02   0.759E-08 -.129E-07 0.641E-01
   -.471E-03 0.815E-03 0.108E-01   0.451E-08 -.508E-08 -.140E-02   0.635E-21 0.000E+00 0.108E-18   -.250E-08 0.432E-08 -.466E-04
   0.583E-03 -.101E-02 -.253E+03   0.534E-04 -.925E-04 0.253E+03   -.332E-18 -.102E-19 0.164E-01   0.417E-08 -.734E-08 -.367E-01
   -.471E-03 0.815E-03 -.760E+03   0.289E-07 -.311E-07 0.760E+03   -.218E-18 0.203E-19 0.105E-01   -.215E-08 0.323E-08 -.674E-01
   0.583E-03 -.101E-02 -.101E+04   0.534E-04 -.920E-04 0.101E+04   0.104E-17 0.108E-18 -.546E-01   -.105E-08 0.184E-08 -.416E-01
   -.152E-02 0.264E-02 0.101E+04   -.534E-04 0.920E-04 -.101E+04   -.110E-17 -.108E-18 0.546E-01   0.134E-09 -.259E-09 0.416E-01
   -.152E-02 0.264E-02 0.253E+03   -.534E-04 0.925E-04 -.253E+03   0.337E-18 0.847E-20 -.164E-01   -.106E-07 0.185E-07 0.366E-01
   -.152E-02 0.264E-02 -.506E+03   -.535E-04 0.926E-04 0.506E+03   -.338E-19 -.551E-20 0.234E-02   -.190E-07 0.327E-07 -.642E-01
   -.153E-02 0.265E-02 -.125E+04   -.493E-04 0.577E-04 0.125E+04   0.457E-17 0.139E-16 -.264E+01   0.372E-07 -.647E-07 -.255E-01
   0.198E-04 -.351E-04 0.378E+03   0.920E-06 -.116E-05 -.378E+03   0.357E-17 -.694E-17 -.575E-01   0.444E-09 -.939E-09 0.108E-01
   0.213E-04 -.368E-04 0.127E+03   0.172E-07 -.193E-07 -.127E+03   0.110E-18 -.271E-19 -.332E-02   0.231E-10 -.158E-10 0.172E-01
   0.213E-04 -.368E-04 -.127E+03   -.176E-07 0.197E-07 0.127E+03   -.129E-18 0.271E-19 0.332E-02   0.296E-10 -.754E-10 -.172E-01
   0.210E-04 -.356E-04 -.378E+03   -.919E-06 0.115E-05 0.378E+03   -.313E-17 0.694E-17 0.575E-01   -.483E-09 0.101E-08 -.108E-01
   0.629E-04 -.109E-03 0.211E+03   -.464E-04 0.804E-04 -.211E+03   0.255E-18 -.407E-19 -.610E-02   0.350E-09 -.682E-09 0.235E-01
   0.628E-04 -.109E-03 -.422E+02   -.463E-04 0.803E-04 0.422E+02   -.180E-19 0.720E-20 0.598E-03   0.221E-09 -.399E-09 -.608E-02
   0.628E-04 -.109E-03 -.295E+03   -.463E-04 0.802E-04 0.295E+03   -.304E-18 0.542E-19 0.117E-01   -.333E-09 0.619E-09 -.195E-01
   -.203E-04 0.351E-04 0.295E+03   0.464E-04 -.802E-04 -.295E+03   0.284E-18 -.542E-19 -.117E-01   0.336E-09 -.623E-09 0.195E-01
   -.203E-04 0.351E-04 0.422E+02   0.463E-04 -.803E-04 -.422E+02   0.185E-19 -.678E-20 -.598E-03   -.183E-09 0.333E-09 0.605E-02
   -.203E-04 0.351E-04 -.211E+03   0.464E-04 -.804E-04 0.211E+03   -.260E-18 0.542E-19 0.610E-02   -.311E-09 0.616E-09 -.235E-01
   0.489E-05 -.848E-05 0.447E-02   -.203E-09 0.195E-09 -.105E-01   -.688E-20 0.271E-19 0.000E+00   0.800E-11 -.139E-10 0.217E-04
   0.205E-04 -.228E-04 0.667E+03   -.216E-04 0.226E-04 -.672E+03   -.133E-15 0.000E+00 0.546E+01   0.568E-09 -.142E-08 0.704E-02
   0.214E-04 -.369E-04 0.478E+03   -.226E-05 0.355E-05 -.478E+03   -.279E-18 0.121E-16 0.160E+00   -.358E-11 0.379E-10 0.113E-01
   -.996E-05 0.172E-04 0.235E+03   0.173E-05 -.291E-05 -.235E+03   -.532E-17 0.499E-17 0.642E-01   -.153E-11 0.606E-11 0.882E-02
   0.292E-05 -.177E-04 -.667E+03   0.216E-04 -.226E-04 0.672E+03   0.140E-15 0.000E+00 -.546E+01   -.581E-09 0.145E-08 -.702E-02
   0.205E-04 -.355E-04 -.235E+03   -.173E-05 0.291E-05 0.235E+03   0.531E-17 0.515E-17 -.642E-01   0.135E-10 -.267E-10 -.878E-02
   -.101E-04 0.173E-04 -.478E+03   0.226E-05 -.355E-05 0.478E+03   0.271E-18 -.141E-16 -.160E+00   0.105E-10 -.499E-10 -.113E-01
 -----------------------------------------------------------------------------------------------
   -.492E-02 0.852E-02 0.615E+00   0.106E-13 -.492E-13 0.171E-12   0.109E-16 0.360E-16 -.144E-14   -.914E-09 0.158E-08 -.188E-03
 
 
 POSITION                                       TOTAL-FORCE (eV/Angst)
 -----------------------------------------------------------------------------------
      0.85843      1.48685     10.19741         0.000000     -0.000000     -0.006420
     -0.00000      0.00000     15.29788         0.000000      0.000000     -0.005456
      0.85843      1.48685     17.83304        -0.000000      0.000000      0.002760
     -0.00000      0.00000     22.90581         0.000000     -0.000000      0.000000
      0.85843      1.48685     25.44179        -0.000000     -0.000000      0.006509
     -0.00000     -0.00000     30.51356        -0.000000     -0.000000      0.005456
      0.85843      1.48685     33.04956        -0.000000     -0.000000      0.009224
      1.71687     -0.00000     12.76199         0.000000      0.000000     -0.009224
      1.71687     -0.00000     20.36983         0.000000      0.000000     -0.006509
      1.71687     -0.00000     27.97851         0.000000     -0.000000     -0.002760
      1.71687     -0.00000     35.61416        -0.000000      0.000000      0.006420
     -0.00000     -0.00000     11.49620        -0.000000     -0.000000      0.012322
     -0.00000      0.00000     19.10161        -0.000000     -0.000000      0.003969
     -0.00000     -0.00000     26.70996         0.000000     -0.000000     -0.003969
     -0.00000      0.00000     34.31538         0.000000     -0.000000     -0.012322
      1.71687     -0.00000     16.56599        -0.000000     -0.000000      0.005498
      1.71687     -0.00000     24.17378         0.000000     -0.000000     -0.002240
      1.71687     -0.00000     31.78095         0.000000     -0.000000     -0.007011
      0.85843      1.48685     14.03083        -0.000000     -0.000000      0.007011
      0.85843      1.48685     21.63774        -0.000000     -0.000000      0.002240
      0.85843      1.48685     29.24577         0.000000     -0.000000     -0.005498
     -0.00000      0.00000      1.07172         0.000000     -0.000000      0.000000
     -0.00000     -0.00000      8.69193        -0.000000     -0.000000      0.008325
      1.71687     -0.00000      6.27390        -0.000000     -0.000000      0.008629
      0.85843      1.48685      3.64985         0.000000     -0.000000     -0.005418
     -0.00000      0.00000     37.11975         0.000000     -0.000000     -0.008325
      1.71687     -0.00000     42.16179        -0.000000     -0.000000      0.005418
      0.85843      1.48685     39.53776         0.000000     -0.000000     -0.008629
 -----------------------------------------------------------------------------------
    total drift:                               -0.004917      0.008516      0.615095


--------------------------------------------------------------------------------------------------------



  FREE ENERGIE OF THE ION-ELECTRON SYSTEM (eV)
  ---------------------------------------------------
  free  energy   TOTEN  =      -151.80696126 eV

  energy  without entropy=     -151.79943110  energy(sigma->0) =     -151.80319618
 
 d Force = 0.1493293E-03[ 0.494E-04, 0.249E-03]  d Energy = 0.1419060E-03 0.742E-05
 d Force =-0.5068703E+01[-0.507E+01,-0.507E+01]  d Ewald  =-0.5068703E+01-0.102E-06


--------------------------------------------------------------------------------------------------------


    POTLOK:  cpu time    0.21: real time    0.21


--------------------------------------------------------------------------------------------------------


 Conjugate gradient step on ions:
 trial-energy change:   -0.000142  1 .order   -0.000149   -0.000249   -0.000049
  (g-gl).g = 0.170E-03      g.g   = 0.265E-03  gl.gl    = 0.378E-03
 g(Force)  = 0.265E-03   g(Stress)= 0.000E+00 ortho     = 0.424E-04
 gamma     =   0.44912
 trial     =   0.87843
 opt step  =   1.09527  (harmonic =   1.09527) maximal distance =0.00213121
 next E    =  -151.806975   (d E  =  -0.00016)


--------------------------------------------------------------------------------------------------------


  
 reached required accuracy - stopping structural energy minimisation
     LOOP+:  cpu time   39.80: real time   39.84
    4ORBIT:  cpu time    0.00: real time    0.00

 total amount of memory used by VASP on root node   154446. kBytes
========================================================================

   base      :      30000. kBytes
   nonl-proj :      16114. kBytes
   fftplans  :      57932. kBytes
   grid      :      23224. kBytes
   one-center:         56. kBytes
   wavefun   :      27120. kBytes
 
  
  
 General timing and accounting informations for this job:
 ========================================================
  
                  Total CPU time used (sec):     2081.460
                            User time (sec):     2060.249
                          System time (sec):       21.211
                         Elapsed time (sec):     2083.695
  
                   Maximum memory used (kb):      261880.
                   Average memory used (kb):           0.
  
                          Minor page faults:       577678
                          Major page faults:            0
                 Voluntary context switches:          142
