       N       E                     dE             d eps       ncg     rms          rms(c)
DAV:   1     0.474481720071E+03    0.47448E+03   -0.40881E+04  6100   0.131E+03
DAV:   2    -0.890175616241E+02   -0.56350E+03   -0.53191E+03  8036   0.246E+02
DAV:   3    -0.146424823157E+03   -0.57407E+02   -0.57047E+02  7020   0.851E+01
DAV:   4    -0.147199880768E+03   -0.77506E+00   -0.77350E+00  7192   0.108E+01
DAV:   5    -0.147211938400E+03   -0.12058E-01   -0.12051E-01  7216   0.132E+00    0.220E+01
DAV:   6    -0.132769201628E+03    0.14443E+02   -0.83737E+01  7220   0.292E+01    0.753E+00
DAV:   7    -0.132663146518E+03    0.10606E+00   -0.19475E+00  6736   0.529E+00    0.460E+00
DAV:   8    -0.132567116187E+03    0.96030E-01   -0.55154E-01  7094   0.410E+00    0.932E-01
DAV:   9    -0.132547098368E+03    0.20018E-01   -0.77786E-02  6976   0.126E+00    0.544E-01
DAV:  10    -0.132545233077E+03    0.18653E-02   -0.35650E-02  6864   0.757E-01    0.246E-01
DAV:  11    -0.132546203037E+03   -0.96996E-03   -0.45714E-03  7020   0.281E-01    0.154E-01
DAV:  12    -0.132546330817E+03   -0.12778E-03   -0.11316E-03  7894   0.214E-01    0.815E-02
DAV:  13    -0.132546265870E+03    0.64946E-04   -0.11201E-03  7062   0.153E-01    0.271E-02
DAV:  14    -0.132546253976E+03    0.11894E-04   -0.12103E-04  6996   0.530E-02    0.155E-02
DAV:  15    -0.132546243808E+03    0.10169E-04   -0.17035E-05  4106   0.237E-02    0.693E-03
DAV:  16    -0.132546228755E+03    0.15053E-04   -0.15916E-05  4814   0.414E-02    0.772E-03
DAV:  17    -0.132546218607E+03    0.10148E-04   -0.13249E-05  4664   0.410E-02    0.107E-02
DAV:  18    -0.132546199949E+03    0.18658E-04   -0.16846E-05  4854   0.704E-02    0.417E-03
DAV:  19    -0.132546185787E+03    0.14162E-04   -0.57992E-05  7264   0.115E-01    0.127E-02
DAV:  20    -0.132546185597E+03    0.19047E-06   -0.62484E-05  6004   0.442E-02
   1 F= -.13254619E+03 E0= -.13254314E+03  d E =-.132546E+03
       N       E                     dE             d eps       ncg     rms          rms(c)
DAV:   1    -0.132547105697E+03   -0.91991E-03   -0.25429E-02  6286   0.707E-01    0.244E-02
DAV:   2    -0.132547144996E+03   -0.39299E-04   -0.70445E-04  7084   0.115E-01    0.185E-02
DAV:   3    -0.132547136746E+03    0.82501E-05   -0.26831E-05  5968   0.241E-02    0.145E-02
DAV:   4    -0.132547130628E+03    0.61180E-05   -0.15589E-05  4400   0.188E-02    0.676E-03
DAV:   5    -0.132547125956E+03    0.46717E-05   -0.13763E-05  4598   0.190E-02    0.566E-03
DAV:   6    -0.132547124245E+03    0.17112E-05   -0.31787E-06  3728   0.911E-03
   2 F= -.13254712E+03 E0= -.13254402E+03  d E =-.938649E-03
       N       E                     dE             d eps       ncg     rms          rms(c)
DAV:   1    -0.132547909708E+03   -0.78375E-03   -0.15011E-01  6116   0.172E+00    0.653E-02
DAV:   2    -0.132548170202E+03   -0.26049E-03   -0.47439E-03  7062   0.293E-01    0.515E-02
DAV:   3    -0.132548101454E+03    0.68748E-04   -0.16423E-04  6986   0.656E-02    0.374E-02
DAV:   4    -0.132548042080E+03    0.59374E-04   -0.20983E-04  7016   0.719E-02    0.153E-02
DAV:   5    -0.132548005917E+03    0.36163E-04   -0.67626E-05  6978   0.450E-02    0.184E-02
DAV:   6    -0.132547977835E+03    0.28082E-04   -0.29375E-05  5934   0.291E-02    0.854E-03
DAV:   7    -0.132547956999E+03    0.20836E-04   -0.12609E-05  4842   0.309E-02    0.631E-03
DAV:   8    -0.132547925199E+03    0.31800E-04   -0.15411E-05  4934   0.603E-02    0.711E-03
DAV:   9    -0.132547895850E+03    0.29349E-04   -0.35972E-05  6422   0.896E-02    0.511E-03
DAV:  10    -0.132547884246E+03    0.11604E-04   -0.42915E-05  6348   0.698E-02    0.419E-03
DAV:  11    -0.132547878496E+03    0.57501E-05   -0.16614E-05  4670   0.478E-02
   3 F= -.13254788E+03 E0= -.13254458E+03  d E =-.169290E-02
       N       E                     dE             d eps       ncg     rms          rms(c)
DAV:   1    -0.132548296937E+03   -0.41269E-03   -0.95323E-02  6384   0.133E+00    0.381E-02
DAV:   2    -0.132548486392E+03   -0.18946E-03   -0.20936E-03  6770   0.178E-01    0.219E-02
DAV:   3    -0.132548475422E+03    0.10971E-04   -0.18853E-05  5302   0.222E-02    0.152E-02
DAV:   4    -0.132548468071E+03    0.73506E-05   -0.34812E-05  5980   0.312E-02    0.515E-03
DAV:   5    -0.132548468314E+03   -0.24317E-06   -0.10866E-05  3644   0.137E-02    0.481E-03
DAV:   6    -0.132548467988E+03    0.32591E-06   -0.21400E-06  3518   0.736E-03
   4 F= -.13254847E+03 E0= -.13254514E+03  d E =-.589493E-03
       N       E                     dE             d eps       ncg     rms          rms(c)
DAV:   1    -0.132548293432E+03    0.17488E-03   -0.85496E-01  6220   0.398E+00    0.111E-01
DAV:   2    -0.132549956017E+03   -0.16626E-02   -0.18284E-02  6720   0.526E-01    0.660E-02
DAV:   3    -0.132549856739E+03    0.99278E-04   -0.15532E-04  7228   0.658E-02    0.444E-02
DAV:   4    -0.132549793776E+03    0.62963E-04   -0.25608E-04  6940   0.856E-02    0.143E-02
DAV:   5    -0.132549794613E+03   -0.83728E-06   -0.81766E-05  6596   0.363E-02    0.119E-02
DAV:   6    -0.132549791416E+03    0.31978E-05   -0.19345E-05  4838   0.230E-02
   5 F= -.13254979E+03 E0= -.13254639E+03  d E =-.191292E-02
       N       E                     dE             d eps       ncg     rms          rms(c)
DAV:   1    -0.132544355448E+03    0.54392E-02   -0.34196E+00  6236   0.797E+00    0.222E-01
DAV:   2    -0.132551050937E+03   -0.66955E-02   -0.73525E-02  6686   0.105E+00    0.134E-01
DAV:   3    -0.132550639699E+03    0.41124E-03   -0.61756E-04  7226   0.132E-01    0.898E-02
DAV:   4    -0.132550375042E+03    0.26466E-03   -0.10290E-03  7070   0.169E-01    0.289E-02
DAV:   5    -0.132550374827E+03    0.21520E-06   -0.31469E-04  6916   0.727E-02    0.224E-02
DAV:   6    -0.132550357024E+03    0.17803E-04   -0.83476E-05  6516   0.513E-02    0.997E-03
DAV:   7    -0.132550345210E+03    0.11814E-04   -0.17999E-05  4704   0.288E-02    0.960E-03
DAV:   8    -0.132550325921E+03    0.19289E-04   -0.12761E-05  4732   0.376E-02    0.357E-03
DAV:   9    -0.132550306643E+03    0.19278E-04   -0.11642E-05  4666   0.447E-02    0.636E-03
DAV:  10    -0.132550276905E+03    0.29738E-04   -0.33865E-05  6212   0.961E-02    0.925E-03
DAV:  11    -0.132550255606E+03    0.21299E-04   -0.63585E-05  7300   0.129E-01    0.133E-02
DAV:  12    -0.132550257352E+03   -0.17457E-05   -0.86083E-05  6092   0.454E-02
   6 F= -.13255026E+03 E0= -.13254678E+03  d E =-.237886E-02
       N       E                     dE             d eps       ncg     rms          rms(c)
DAV:   1    -0.132549601424E+03    0.65418E-03   -0.45556E-01  6200   0.289E+00    0.831E-02
DAV:   2    -0.132550509497E+03   -0.90807E-03   -0.10080E-02  6724   0.383E-01    0.485E-02
DAV:   3    -0.132550454764E+03    0.54733E-04   -0.84035E-05  7140   0.490E-02    0.334E-02
DAV:   4    -0.132550418872E+03    0.35891E-04   -0.16620E-04  6926   0.706E-02    0.111E-02
DAV:   5    -0.132550420228E+03   -0.13561E-05   -0.53429E-05  6262   0.287E-02    0.109E-02
DAV:   6    -0.132550418038E+03    0.21901E-05   -0.12666E-05  3844   0.175E-02
   7 F= -.13255042E+03 E0= -.13254698E+03  d E =-.253954E-02
       N       E                     dE             d eps       ncg     rms          rms(c)
DAV:   1    -0.132551143022E+03   -0.72279E-03   -0.29498E-01  6156   0.239E+00    0.736E-02
DAV:   2    -0.132551770906E+03   -0.62788E-03   -0.71387E-03  6710   0.345E-01    0.429E-02
DAV:   3    -0.132551739704E+03    0.31201E-04   -0.13822E-04  7092   0.571E-02    0.336E-02
DAV:   4    -0.132551714097E+03    0.25608E-04   -0.10686E-04  6538   0.535E-02    0.141E-02
DAV:   5    -0.132551707023E+03    0.70736E-05   -0.37121E-05  6078   0.406E-02    0.148E-02
DAV:   6    -0.132551701395E+03    0.56281E-05   -0.17930E-05  4222   0.304E-02
   8 F= -.13255170E+03 E0= -.13254827E+03  d E =-.128336E-02
       N       E                     dE             d eps       ncg     rms          rms(c)
DAV:   1    -0.132548639015E+03    0.30680E-02   -0.24292E+00  6156   0.686E+00    0.210E-01
DAV:   2    -0.132553859198E+03   -0.52202E-02   -0.58843E-02  6712   0.990E-01    0.125E-01
DAV:   3    -0.132553589949E+03    0.26925E-03   -0.10628E-03  7168   0.164E-01    0.967E-02
DAV:   4    -0.132553376550E+03    0.21340E-03   -0.93237E-04  7064   0.161E-01    0.408E-02
DAV:   5    -0.132553323580E+03    0.52970E-04   -0.29918E-04  7204   0.117E-01    0.423E-02
DAV:   6    -0.132553277022E+03    0.46558E-04   -0.19480E-04  7464   0.954E-02    0.228E-02
DAV:   7    -0.132553265631E+03    0.11391E-04   -0.13940E-04  6788   0.595E-02    0.133E-02
DAV:   8    -0.132553245550E+03    0.20081E-04   -0.97087E-06  4046   0.365E-02    0.644E-03
DAV:   9    -0.132553220351E+03    0.25199E-04   -0.13432E-05  4658   0.565E-02    0.434E-03
DAV:  10    -0.132553198547E+03    0.21804E-04   -0.17698E-05  5120   0.646E-02    0.547E-03
DAV:  11    -0.132553170157E+03    0.28390E-04   -0.26884E-05  5700   0.113E-01    0.370E-03
DAV:  12    -0.132553159249E+03    0.10907E-04   -0.61642E-05  6952   0.907E-02    0.362E-03
DAV:  13    -0.132553158964E+03    0.28514E-06   -0.46464E-05  5912   0.393E-02
   9 F= -.13255316E+03 E0= -.13254977E+03  d E =-.274093E-02
       N       E                     dE             d eps       ncg     rms          rms(c)
DAV:   1    -0.132553591332E+03   -0.43208E-03   -0.16259E-01  6226   0.174E+00    0.497E-02
DAV:   2    -0.132553908577E+03   -0.31725E-03   -0.34644E-03  6714   0.236E-01    0.281E-02
DAV:   3    -0.132553890281E+03    0.18296E-04   -0.36672E-05  5972   0.317E-02    0.195E-02
DAV:   4    -0.132553875942E+03    0.14340E-04   -0.60377E-05  6762   0.492E-02    0.743E-03
DAV:   5    -0.132553876986E+03   -0.10444E-05   -0.26035E-05  5074   0.234E-02    0.938E-03
DAV:   6    -0.132553876292E+03    0.69409E-06   -0.28458E-06  3434   0.769E-03
  10 F= -.13255388E+03 E0= -.13255048E+03  d E =-.717328E-03
       N       E                     dE             d eps       ncg     rms          rms(c)
DAV:   1    -0.132552882313E+03    0.99467E-03   -0.14628E+00  6132   0.523E+00    0.146E-01
DAV:   2    -0.132555748654E+03   -0.28663E-02   -0.31003E-02  6700   0.705E-01    0.849E-02
DAV:   3    -0.132555577986E+03    0.17067E-03   -0.27858E-04  7222   0.930E-02    0.590E-02
DAV:   4    -0.132555430755E+03    0.14723E-03   -0.62507E-04  7202   0.173E-01    0.222E-02
DAV:   5    -0.132555443522E+03   -0.12767E-04   -0.29869E-04  6558   0.735E-02    0.296E-02
DAV:   6    -0.132555435482E+03    0.80394E-05   -0.17356E-05  4000   0.185E-02
  11 F= -.13255544E+03 E0= -.13255202E+03  d E =-.227652E-02
       N       E                     dE             d eps       ncg     rms          rms(c)
DAV:   1    -0.132545576190E+03    0.98673E-02   -0.58543E+00  6132   0.105E+01    0.292E-01
DAV:   2    -0.132557114973E+03   -0.11539E-01   -0.12509E-01  6710   0.142E+00    0.175E-01
DAV:   3    -0.132556386981E+03    0.72799E-03   -0.11602E-03  7200   0.193E-01    0.121E-01
DAV:   4    -0.132555716227E+03    0.67075E-03   -0.24939E-03  7186   0.347E-01    0.449E-02
DAV:   5    -0.132555750366E+03   -0.34140E-04   -0.12322E-03  6770   0.154E-01    0.574E-02
DAV:   6    -0.132555714901E+03    0.35465E-04   -0.92718E-05  6306   0.415E-02    0.417E-02
DAV:   7    -0.132555591082E+03    0.12382E-03   -0.23712E-04  6980   0.812E-02    0.231E-02
DAV:   8    -0.132555502659E+03    0.88422E-04   -0.14594E-04  7614   0.105E-01    0.372E-02
DAV:   9    -0.132555461178E+03    0.41481E-04   -0.12496E-04  6598   0.720E-02    0.398E-02
DAV:  10    -0.132555353384E+03    0.10779E-03   -0.13990E-04  9288   0.131E-01    0.241E-02
DAV:  11    -0.132555231462E+03    0.12192E-03   -0.20445E-04  9360   0.178E-01    0.216E-02
DAV:  12    -0.132555115613E+03    0.11585E-03   -0.25896E-04  7424   0.210E-01    0.396E-02
DAV:  13    -0.132555035531E+03    0.80082E-04   -0.27439E-04  9164   0.281E-01    0.399E-02
DAV:  14    -0.132555038534E+03   -0.30021E-05   -0.39368E-04  6674   0.771E-02    0.210E-02
DAV:  15    -0.132555037369E+03    0.11646E-05   -0.33659E-05  5932   0.352E-02
  12 F= -.13255504E+03 E0= -.13255166E+03  d E =-.187840E-02
       N       E                     dE             d eps       ncg     rms          rms(c)
DAV:   1    -0.132553110147E+03    0.19284E-02   -0.14918E+00  6192   0.524E+00    0.149E-01
DAV:   2    -0.132556114726E+03   -0.30046E-02   -0.32400E-02  6610   0.706E-01    0.879E-02
DAV:   3    -0.132555934011E+03    0.18071E-03   -0.25989E-04  7272   0.904E-02    0.609E-02
DAV:   4    -0.132555787808E+03    0.14620E-03   -0.72141E-04  7194   0.184E-01    0.223E-02
DAV:   5    -0.132555804027E+03   -0.16219E-04   -0.30953E-04  6634   0.723E-02    0.297E-02
DAV:   6    -0.132555793925E+03    0.10102E-04   -0.22215E-05  4340   0.195E-02    0.197E-02
DAV:   7    -0.132555778311E+03    0.15615E-04   -0.96747E-05  6418   0.464E-02    0.136E-02
DAV:   8    -0.132555774433E+03    0.38777E-05   -0.38778E-05  6204   0.415E-02
  13 F= -.13255577E+03 E0= -.13255240E+03  d E =-.261547E-02
       N       E                     dE             d eps       ncg     rms          rms(c)
DAV:   1    -0.132556166539E+03   -0.38823E-03   -0.29180E-01  6112   0.236E+00    0.758E-02
DAV:   2    -0.132556759660E+03   -0.59312E-03   -0.68217E-03  6776   0.336E-01    0.379E-02
DAV:   3    -0.132556727092E+03    0.32568E-04   -0.12279E-04  7080   0.514E-02    0.277E-02
DAV:   4    -0.132556695752E+03    0.31339E-04   -0.87735E-05  6832   0.470E-02    0.133E-02
DAV:   5    -0.132556676948E+03    0.18804E-04   -0.23700E-05  5420   0.409E-02    0.146E-02
DAV:   6    -0.132556660802E+03    0.16146E-04   -0.15896E-05  4464   0.409E-02    0.998E-03
DAV:   7    -0.132556639845E+03    0.20957E-04   -0.34549E-05  5900   0.651E-02    0.711E-03
DAV:   8    -0.132556624976E+03    0.14870E-04   -0.30015E-05  5648   0.541E-02    0.105E-02
DAV:   9    -0.132556598753E+03    0.26223E-04   -0.14366E-05  5144   0.773E-02    0.604E-03
DAV:  10    -0.132556588715E+03    0.10038E-04   -0.29961E-05  5724   0.591E-02    0.566E-03
DAV:  11    -0.132556582761E+03    0.59541E-05   -0.17314E-05  5044   0.638E-02
  14 F= -.13255658E+03 E0= -.13255318E+03  d E =-.808328E-03
       N       E                     dE             d eps       ncg     rms          rms(c)
DAV:   1    -0.132556023081E+03    0.56563E-03   -0.68221E-01  6100   0.361E+00    0.105E-01
DAV:   2    -0.132557426363E+03   -0.14033E-02   -0.15280E-02  6816   0.500E-01    0.597E-02
DAV:   3    -0.132557358596E+03    0.67767E-04   -0.18063E-04  7254   0.630E-02    0.417E-02
DAV:   4    -0.132557311710E+03    0.46886E-04   -0.32446E-04  7202   0.882E-02    0.211E-02
DAV:   5    -0.132557307793E+03    0.39171E-05   -0.61761E-05  6360   0.392E-02    0.213E-02
DAV:   6    -0.132557299770E+03    0.80234E-05   -0.33900E-05  5522   0.316E-02
  15 F= -.13255730E+03 E0= -.13255387E+03  d E =-.152534E-02
       N       E                     dE             d eps       ncg     rms          rms(c)
DAV:   1    -0.132551528381E+03    0.57794E-02   -0.27242E+00  6100   0.723E+00    0.210E-01
DAV:   2    -0.132557047607E+03   -0.55192E-02   -0.60469E-02  6814   0.100E+00    0.117E-01
DAV:   3    -0.132556780053E+03    0.26755E-03   -0.78312E-04  7206   0.129E-01    0.808E-02
DAV:   4    -0.132556562775E+03    0.21728E-03   -0.94943E-04  7300   0.151E-01    0.370E-02
DAV:   5    -0.132556525158E+03    0.37617E-04   -0.19321E-04  7088   0.804E-02    0.376E-02
DAV:   6    -0.132556474001E+03    0.51156E-04   -0.15827E-04  7372   0.843E-02    0.179E-02
DAV:   7    -0.132556439516E+03    0.34486E-04   -0.57799E-05  6800   0.623E-02    0.128E-02
DAV:   8    -0.132556398009E+03    0.41506E-04   -0.86640E-06  4424   0.523E-02    0.787E-03
DAV:   9    -0.132556312737E+03    0.85272E-04   -0.54718E-05  6960   0.124E-01    0.841E-03
DAV:  10    -0.132556241262E+03    0.71475E-04   -0.83511E-05  7662   0.155E-01    0.803E-03
DAV:  11    -0.132556195201E+03    0.46062E-04   -0.13622E-04  8562   0.214E-01    0.655E-03
DAV:  12    -0.132556211264E+03   -0.16063E-04   -0.21623E-04  6336   0.823E-02    0.101E-02
DAV:  13    -0.132556215638E+03   -0.43745E-05   -0.52151E-05  5394   0.256E-02
  16 F= -.13255622E+03 E0= -.13255274E+03  d E =-.441205E-03
       N       E                     dE             d eps       ncg     rms          rms(c)
DAV:   1    -0.132554555011E+03    0.16563E-02   -0.15883E+00  6100   0.551E+00    0.159E-01
DAV:   2    -0.132557689481E+03   -0.31345E-02   -0.34559E-02  6824   0.759E-01    0.866E-02
DAV:   3    -0.132557549443E+03    0.14004E-03   -0.50490E-04  7234   0.102E-01    0.617E-02
DAV:   4    -0.132557443353E+03    0.10609E-03   -0.43043E-04  7182   0.101E-01    0.273E-02
DAV:   5    -0.132557422434E+03    0.20918E-04   -0.11399E-04  7160   0.593E-02    0.272E-02
DAV:   6    -0.132557400764E+03    0.21671E-04   -0.70519E-05  6510   0.556E-02    0.142E-02
DAV:   7    -0.132557388961E+03    0.11803E-04   -0.37489E-05  5810   0.410E-02    0.910E-03
DAV:   8    -0.132557374374E+03    0.14587E-04   -0.34686E-06  3896   0.316E-02    0.563E-03
DAV:   9    -0.132557348533E+03    0.25842E-04   -0.11999E-05  4930   0.582E-02    0.378E-03
DAV:  10    -0.132557319252E+03    0.29280E-04   -0.33278E-05  6216   0.945E-02    0.753E-03
DAV:  11    -0.132557298437E+03    0.20815E-04   -0.49219E-05  6920   0.129E-01    0.461E-03
DAV:  12    -0.132557303096E+03   -0.46585E-05   -0.92401E-05  6486   0.753E-02
  17 F= -.13255730E+03 E0= -.13255385E+03  d E =-.152866E-02
       N       E                     dE             d eps       ncg     rms          rms(c)
DAV:   1    -0.132557195026E+03    0.10341E-03   -0.92614E-01  6124   0.425E+00    0.121E-01
DAV:   2    -0.132559161970E+03   -0.19669E-02   -0.21079E-02  6668   0.586E-01    0.688E-02
DAV:   3    -0.132559073917E+03    0.88054E-04   -0.22951E-04  7304   0.713E-02    0.482E-02
DAV:   4    -0.132559013141E+03    0.60775E-04   -0.24002E-04  6910   0.905E-02    0.175E-02
DAV:   5    -0.132559016684E+03   -0.35429E-05   -0.96088E-05  6212   0.415E-02    0.175E-02
DAV:   6    -0.132559013176E+03    0.35079E-05   -0.35418E-05  5342   0.255E-02
  18 F= -.13255901E+03 E0= -.13255554E+03  d E =-.171008E-02
       N       E                     dE             d eps       ncg     rms          rms(c)
DAV:   1    -0.132545005972E+03    0.14011E-01   -0.83287E+00  6100   0.127E+01    0.365E-01
DAV:   2    -0.132562886328E+03   -0.17880E-01   -0.19093E-01  6644   0.176E+00    0.213E-01
DAV:   3    -0.132562003210E+03    0.88312E-03   -0.18068E-03  7256   0.207E-01    0.145E-01
DAV:   4    -0.132561404375E+03    0.59883E-03   -0.27575E-03  7118   0.307E-01    0.475E-02
DAV:   5    -0.132561456949E+03   -0.52574E-04   -0.92074E-04  6708   0.126E-01    0.501E-02
DAV:   6    -0.132561429156E+03    0.27793E-04   -0.24725E-04  6330   0.635E-02    0.214E-02
DAV:   7    -0.132561422295E+03    0.68606E-05   -0.69043E-05  6312   0.383E-02
  19 F= -.13256142E+03 E0= -.13255791E+03  d E =-.411920E-02
       N       E                     dE             d eps       ncg     rms          rms(c)
DAV:   1    -0.132561030281E+03    0.39887E-03   -0.20013E-01  6112   0.198E+00    0.568E-02
DAV:   2    -0.132561449430E+03   -0.41915E-03   -0.44492E-03  6660   0.269E-01    0.312E-02
DAV:   3    -0.132561426551E+03    0.22879E-04   -0.33705E-05  5992   0.322E-02    0.208E-02
DAV:   4    -0.132561403920E+03    0.22632E-04   -0.50755E-05  6356   0.578E-02    0.538E-03
DAV:   5    -0.132561403346E+03    0.57367E-06   -0.35042E-05  5604   0.303E-02    0.633E-03
DAV:   6    -0.132561402135E+03    0.12110E-05   -0.43605E-06  3668   0.944E-03
  20 F= -.13256140E+03 E0= -.13255789E+03  d E =-.409904E-02
       N       E                     dE             d eps       ncg     rms          rms(c)
DAV:   1    -0.132560090329E+03    0.13130E-02   -0.97153E-01  6332   0.436E+00    0.131E-01
DAV:   2    -0.132562171226E+03   -0.20809E-02   -0.23426E-02  6768   0.622E-01    0.785E-02
DAV:   3    -0.132562035436E+03    0.13579E-03   -0.32396E-04  7206   0.882E-02    0.573E-02
DAV:   4    -0.132561929016E+03    0.10642E-03   -0.34544E-04  6932   0.101E-01    0.223E-02
DAV:   5    -0.132561901001E+03    0.28015E-04   -0.11810E-04  6768   0.566E-02    0.178E-02
DAV:   6    -0.132561884258E+03    0.16742E-04   -0.39504E-05  6504   0.320E-02    0.842E-03
DAV:   7    -0.132561866359E+03    0.17899E-04   -0.13456E-05  4622   0.303E-02    0.632E-03
DAV:   8    -0.132561844069E+03    0.22290E-04   -0.12424E-05  4924   0.458E-02    0.112E-02
DAV:   9    -0.132561818640E+03    0.25429E-04   -0.24323E-05  5628   0.665E-02    0.581E-03
DAV:  10    -0.132561795863E+03    0.22777E-04   -0.27196E-05  5848   0.778E-02    0.790E-03
DAV:  11    -0.132561769986E+03    0.25877E-04   -0.38247E-05  6388   0.122E-01    0.635E-03
DAV:  12    -0.132561771895E+03   -0.19093E-05   -0.71727E-05  6164   0.566E-02
  21 F= -.13256177E+03 E0= -.13255825E+03  d E =-.369760E-03
       N       E                     dE             d eps       ncg     rms          rms(c)
DAV:   1    -0.132561677093E+03    0.92893E-04   -0.72779E-02  6480   0.119E+00    0.360E-02
DAV:   2    -0.132561830258E+03   -0.15316E-03   -0.17302E-03  6792   0.168E-01    0.214E-02
DAV:   3    -0.132561819316E+03    0.10942E-04   -0.20550E-05  4940   0.230E-02    0.153E-02
DAV:   4    -0.132561810836E+03    0.84799E-05   -0.39275E-05  5982   0.322E-02    0.620E-03
DAV:   5    -0.132561810049E+03    0.78650E-06   -0.90608E-06  3638   0.149E-02    0.543E-03
DAV:   6    -0.132561809238E+03    0.81082E-06   -0.48838E-06  3566   0.108E-02
  22 F= -.13256181E+03 E0= -.13255829E+03  d E =-.407103E-03
       N       E                     dE             d eps       ncg     rms          rms(c)
DAV:   1    -0.132562037864E+03   -0.22782E-03   -0.47567E-02  6152   0.953E-01    0.351E-02
DAV:   2    -0.132562117327E+03   -0.79462E-04   -0.13360E-03  7056   0.163E-01    0.249E-02
DAV:   3    -0.132562102181E+03    0.15146E-04   -0.72693E-05  6700   0.440E-02    0.207E-02
DAV:   4    -0.132562087376E+03    0.14805E-04   -0.23916E-05  4920   0.265E-02    0.108E-02
DAV:   5    -0.132562063413E+03    0.23962E-04   -0.22297E-05  5368   0.480E-02    0.901E-03
DAV:   6    -0.132562046287E+03    0.17126E-04   -0.14731E-05  4616   0.493E-02    0.919E-03
DAV:   7    -0.132562031425E+03    0.14862E-04   -0.18006E-05  4972   0.487E-02    0.644E-03
DAV:   8    -0.132562011992E+03    0.19434E-04   -0.68007E-06  4266   0.610E-02    0.414E-03
DAV:   9    -0.132561980545E+03    0.31446E-04   -0.50967E-05  6766   0.130E-01    0.908E-03
DAV:  10    -0.132561979072E+03    0.14728E-05   -0.56971E-05  5864   0.337E-02
  23 F= -.13256198E+03 E0= -.13255843E+03  d E =-.169834E-03
       N       E                     dE             d eps       ncg     rms          rms(c)
DAV:   1    -0.132561985548E+03   -0.50023E-05   -0.18612E-03  6668   0.190E-01    0.722E-03
DAV:   2    -0.132561989902E+03   -0.43541E-05   -0.58866E-05  6580   0.305E-02    0.675E-03
DAV:   3    -0.132561988879E+03    0.10227E-05   -0.13017E-06  3626   0.881E-03    0.466E-03
DAV:   4    -0.132561988046E+03    0.83329E-06   -0.46086E-06  3838   0.162E-02    0.173E-03
DAV:   5    -0.132561988134E+03   -0.88025E-07   -0.27619E-06  3506   0.737E-03    0.216E-03
DAV:   6    -0.132561988074E+03    0.59577E-07   -0.32034E-07  3434   0.253E-03
  24 F= -.13256199E+03 E0= -.13255844E+03  d E =-.178836E-03
       N       E                     dE             d eps       ncg     rms          rms(c)
DAV:   1    -0.132562072105E+03   -0.83971E-04   -0.78097E-02  6124   0.117E+00    0.328E-02
DAV:   2    -0.132562190194E+03   -0.11809E-03   -0.15101E-03  6994   0.156E-01    0.214E-02
DAV:   3    -0.132562176992E+03    0.13202E-04   -0.25358E-05  5330   0.271E-02    0.151E-02
DAV:   4    -0.132562170003E+03    0.69888E-05   -0.22656E-05  5258   0.265E-02    0.717E-03
DAV:   5    -0.132562167924E+03    0.20787E-05   -0.11475E-05  3876   0.193E-02    0.386E-03
DAV:   6    -0.132562167522E+03    0.40214E-06   -0.34869E-06  3542   0.119E-02
  25 F= -.13256217E+03 E0= -.13255858E+03  d E =-.179448E-03
       N       E                     dE             d eps       ncg     rms          rms(c)
DAV:   1    -0.132562134954E+03    0.32970E-04   -0.60129E-02  6124   0.103E+00    0.287E-02
DAV:   2    -0.132562225337E+03   -0.90382E-04   -0.11564E-03  7002   0.136E-01    0.192E-02
DAV:   3    -0.132562214333E+03    0.11003E-04   -0.19564E-05  5078   0.245E-02    0.134E-02
DAV:   4    -0.132562208793E+03    0.55404E-05   -0.17092E-05  4348   0.236E-02    0.659E-03
DAV:   5    -0.132562206617E+03    0.21761E-05   -0.91954E-06  3786   0.187E-02    0.323E-03
DAV:   6    -0.132562205903E+03    0.71426E-06   -0.31176E-06  3614   0.136E-02
  26 F= -.13256221E+03 E0= -.13255859E+03  d E =-.217829E-03
       N       E                     dE             d eps       ncg     rms          rms(c)
DAV:   1    -0.132562289005E+03   -0.82388E-04   -0.70851E-02  6482   0.118E+00    0.364E-02
DAV:   2    -0.132562429878E+03   -0.14087E-03   -0.17119E-03  6778   0.169E-01    0.219E-02
DAV:   3    -0.132562412852E+03    0.17026E-04   -0.32889E-05  5380   0.276E-02    0.147E-02
DAV:   4    -0.132562406565E+03    0.62873E-05   -0.10960E-05  3888   0.190E-02    0.975E-03
DAV:   5    -0.132562396054E+03    0.10510E-04   -0.73770E-06  4150   0.307E-02    0.343E-03
DAV:   6    -0.132562389474E+03    0.65799E-05   -0.92618E-06  3884   0.286E-02
  27 F= -.13256239E+03 E0= -.13255872E+03  d E =-.183572E-03
       N       E                     dE             d eps       ncg     rms          rms(c)
DAV:   1    -0.132562033401E+03    0.36265E-03   -0.30110E-01  6490   0.243E+00    0.749E-02
DAV:   2    -0.132562637283E+03   -0.60388E-03   -0.73980E-03  6830   0.351E-01    0.476E-02
DAV:   3    -0.132562551389E+03    0.85893E-04   -0.17816E-04  6940   0.587E-02    0.314E-02
DAV:   4    -0.132562525426E+03    0.25963E-04   -0.45379E-05  6504   0.353E-02    0.215E-02
DAV:   5    -0.132562479509E+03    0.45917E-04   -0.26540E-05  5772   0.562E-02    0.866E-03
DAV:   6    -0.132562447691E+03    0.31818E-04   -0.37381E-05  6206   0.595E-02    0.473E-03
DAV:   7    -0.132562402658E+03    0.45033E-04   -0.18911E-05  5256   0.916E-02    0.871E-03
DAV:   8    -0.132562365321E+03    0.37336E-04   -0.39575E-05  6434   0.946E-02    0.859E-03
DAV:   9    -0.132562338721E+03    0.26600E-04   -0.39599E-05  6352   0.104E-01    0.525E-03
DAV:  10    -0.132562333966E+03    0.47555E-05   -0.66063E-05  6892   0.860E-02
  28 F= -.13256233E+03 E0= -.13255859E+03  d E =-.128063E-03
       N       E                     dE             d eps       ncg     rms          rms(c)
DAV:   1    -0.132562327895E+03    0.10826E-04   -0.55509E-02  6624   0.104E+00    0.331E-02
DAV:   2    -0.132562440824E+03   -0.11293E-03   -0.13647E-03  6788   0.150E-01    0.195E-02
DAV:   3    -0.132562428302E+03    0.12522E-04   -0.28956E-05  5236   0.250E-02    0.126E-02
DAV:   4    -0.132562424578E+03    0.37244E-05   -0.98855E-06  3830   0.162E-02    0.805E-03
DAV:   5    -0.132562419996E+03    0.45818E-05   -0.47442E-06  4012   0.177E-02    0.308E-03
DAV:   6    -0.132562417838E+03    0.21580E-05   -0.45721E-06  3760   0.153E-02
  29 F= -.13256242E+03 E0= -.13255871E+03  d E =-.211935E-03
       N       E                     dE             d eps       ncg     rms          rms(c)
DAV:   1    -0.132562399072E+03    0.20924E-04   -0.22344E-02  6540   0.663E-01    0.203E-02
DAV:   2    -0.132562442265E+03   -0.43193E-04   -0.54986E-04  6830   0.957E-02    0.132E-02
DAV:   3    -0.132562435332E+03    0.69331E-05   -0.11477E-05  4572   0.163E-02    0.875E-03
DAV:   4    -0.132562432677E+03    0.26546E-05   -0.37712E-06  3716   0.110E-02    0.595E-03
DAV:   5    -0.132562427181E+03    0.54959E-05   -0.24816E-06  3808   0.201E-02    0.260E-03
DAV:   6    -0.132562422055E+03    0.51261E-05   -0.42133E-06  4060   0.243E-02
  30 F= -.13256242E+03 E0= -.13255874E+03  d E =-.216153E-03
       N       E                     dE             d eps       ncg     rms          rms(c)
DAV:   1    -0.132562499505E+03   -0.72324E-04   -0.64723E-03  6368   0.361E-01    0.139E-02
DAV:   2    -0.132562513253E+03   -0.13748E-04   -0.20791E-04  6922   0.615E-02    0.910E-03
DAV:   3    -0.132562510538E+03    0.27152E-05   -0.78245E-06  4030   0.126E-02    0.655E-03
DAV:   4    -0.132562509171E+03    0.13671E-05   -0.24341E-06  3644   0.760E-03    0.382E-03
DAV:   5    -0.132562506803E+03    0.23684E-05   -0.28740E-06  3698   0.135E-02    0.260E-03
DAV:   6    -0.132562505463E+03    0.13395E-05   -0.10709E-06  3614   0.125E-02
  31 F= -.13256251E+03 E0= -.13255880E+03  d E =-.834078E-04
       N       E                     dE             d eps       ncg     rms          rms(c)
DAV:   1    -0.132562629576E+03   -0.12277E-03   -0.58271E-02  6544   0.108E+00    0.385E-02
DAV:   2    -0.132562733580E+03   -0.10400E-03   -0.15519E-03  6930   0.165E-01    0.226E-02
DAV:   3    -0.132562713188E+03    0.20391E-04   -0.74980E-05  6660   0.345E-02    0.156E-02
DAV:   4    -0.132562708733E+03    0.44552E-05   -0.11562E-05  4168   0.161E-02    0.108E-02
DAV:   5    -0.132562702432E+03    0.63014E-05   -0.95326E-06  4096   0.223E-02    0.437E-03
DAV:   6    -0.132562700187E+03    0.22451E-05   -0.52295E-06  3704   0.195E-02
  32 F= -.13256270E+03 E0= -.13255894E+03  d E =-.278131E-03
       N       E                     dE             d eps       ncg     rms          rms(c)
DAV:   1    -0.132562478686E+03    0.22375E-03   -0.23343E-01  6562   0.216E+00    0.767E-02
DAV:   2    -0.132562895231E+03   -0.41655E-03   -0.62292E-03  6952   0.328E-01    0.476E-02
DAV:   3    -0.132562791762E+03    0.10347E-03   -0.34773E-04  6988   0.711E-02    0.314E-02
DAV:   4    -0.132562774856E+03    0.16906E-04   -0.51212E-05  6590   0.329E-02    0.222E-02
DAV:   5    -0.132562753484E+03    0.21371E-04   -0.25521E-05  5678   0.370E-02    0.950E-03
DAV:   6    -0.132562743523E+03    0.99619E-05   -0.17335E-05  4550   0.412E-02
  33 F= -.13256274E+03 E0= -.13255892E+03  d E =-.321467E-03
       N       E                     dE             d eps       ncg     rms          rms(c)
DAV:   1    -0.132562954766E+03   -0.20128E-03   -0.13229E-02  6274   0.507E-01    0.264E-02
DAV:   2    -0.132562970835E+03   -0.16069E-04   -0.50714E-04  6862   0.915E-02    0.168E-02
DAV:   3    -0.132562952491E+03    0.18344E-04   -0.51199E-05  5556   0.251E-02    0.103E-02
DAV:   4    -0.132562946679E+03    0.58121E-05   -0.66954E-06  4120   0.148E-02    0.705E-03
DAV:   5    -0.132562934701E+03    0.11978E-04   -0.39709E-06  3904   0.295E-02    0.410E-03
DAV:   6    -0.132562921900E+03    0.12801E-04   -0.48809E-06  4432   0.396E-02    0.366E-03
DAV:   7    -0.132562906880E+03    0.15020E-04   -0.75948E-06  4560   0.546E-02    0.315E-03
DAV:   8    -0.132562886339E+03    0.20542E-04   -0.27707E-05  5984   0.111E-01    0.190E-03
DAV:   9    -0.132562884911E+03    0.14277E-05   -0.58773E-05  6634   0.856E-02
  34 F= -.13256288E+03 E0= -.13255905E+03  d E =-.141388E-03
       N       E                     dE             d eps       ncg     rms          rms(c)
DAV:   1    -0.132563007872E+03   -0.12153E-03   -0.15888E-02  6280   0.553E-01    0.288E-02
DAV:   2    -0.132563031716E+03   -0.23844E-04   -0.59398E-04  6848   0.944E-02    0.180E-02
DAV:   3    -0.132563010136E+03    0.21581E-04   -0.61420E-05  5448   0.240E-02    0.962E-03
DAV:   4    -0.132563008891E+03    0.12443E-05   -0.71744E-06  4078   0.122E-02    0.686E-03
DAV:   5    -0.132563007225E+03    0.16661E-05   -0.26028E-06  3684   0.127E-02    0.305E-03
DAV:   6    -0.132563005619E+03    0.16058E-05   -0.12724E-06  3772   0.130E-02
  35 F= -.13256301E+03 E0= -.13255918E+03  d E =-.262097E-03
       N       E                     dE             d eps       ncg     rms          rms(c)
DAV:   1    -0.132563036643E+03   -0.29418E-04   -0.63295E-02  6244   0.111E+00    0.556E-02
DAV:   2    -0.132563135236E+03   -0.98593E-04   -0.23846E-03  6836   0.192E-01    0.361E-02
DAV:   3    -0.132563045076E+03    0.90160E-04   -0.26220E-04  6798   0.516E-02    0.199E-02
DAV:   4    -0.132563037294E+03    0.77828E-05   -0.30967E-05  5212   0.244E-02    0.141E-02
DAV:   5    -0.132563025032E+03    0.12262E-04   -0.61718E-06  4072   0.248E-02    0.711E-03
DAV:   6    -0.132563007946E+03    0.17086E-04   -0.60354E-06  4664   0.399E-02    0.443E-03
DAV:   7    -0.132562996098E+03    0.11847E-04   -0.10543E-05  4474   0.375E-02    0.418E-03
DAV:   8    -0.132562977912E+03    0.18186E-04   -0.69162E-06  4710   0.619E-02    0.248E-03
DAV:   9    -0.132562961346E+03    0.16567E-04   -0.41415E-05  6652   0.101E-01    0.400E-03
DAV:  10    -0.132562963602E+03   -0.22563E-05   -0.52482E-05  5942   0.383E-02
  36 F= -.13256296E+03 E0= -.13255920E+03  d E =-.220079E-03
       N       E                     dE             d eps       ncg     rms          rms(c)
DAV:   1    -0.132563034957E+03   -0.73612E-04   -0.16846E-02  6280   0.571E-01    0.296E-02
DAV:   2    -0.132563060527E+03   -0.25570E-04   -0.64563E-04  6818   0.101E-01    0.188E-02
DAV:   3    -0.132563036721E+03    0.23806E-04   -0.74848E-05  5498   0.282E-02    0.103E-02
DAV:   4    -0.132563035179E+03    0.15414E-05   -0.84780E-06  4184   0.125E-02    0.703E-03
DAV:   5    -0.132563033026E+03    0.21531E-05   -0.31104E-06  3716   0.101E-02    0.344E-03
DAV:   6    -0.132563030886E+03    0.21406E-05   -0.12166E-06  4030   0.134E-02
  37 F= -.13256303E+03 E0= -.13255923E+03  d E =-.287363E-03
       N       E                     dE             d eps       ncg     rms          rms(c)
DAV:   1    -0.132563195367E+03   -0.16234E-03   -0.20042E-02  6226   0.632E-01    0.220E-02
DAV:   2    -0.132563233235E+03   -0.37868E-04   -0.54176E-04  6846   0.956E-02    0.147E-02
DAV:   3    -0.132563221113E+03    0.12122E-04   -0.31788E-05  5240   0.201E-02    0.870E-03
DAV:   4    -0.132563219370E+03    0.17432E-05   -0.40836E-06  3860   0.101E-02    0.639E-03
DAV:   5    -0.132563216271E+03    0.30989E-05   -0.22093E-06  3752   0.161E-02    0.264E-03
DAV:   6    -0.132563214452E+03    0.18185E-05   -0.25187E-06  3808   0.156E-02
  38 F= -.13256321E+03 E0= -.13255943E+03  d E =-.183567E-03
       N       E                     dE             d eps       ncg     rms          rms(c)
DAV:   1    -0.132563387995E+03   -0.17172E-03   -0.18055E-01  6294   0.190E+00    0.668E-02
DAV:   2    -0.132563743834E+03   -0.35584E-03   -0.49338E-03  6848   0.288E-01    0.432E-02
DAV:   3    -0.132563645454E+03    0.98379E-04   -0.27241E-04  6496   0.569E-02    0.260E-02
DAV:   4    -0.132563632193E+03    0.13261E-04   -0.35430E-05  5300   0.276E-02    0.190E-02
DAV:   5    -0.132563615149E+03    0.17044E-04   -0.15819E-05  4338   0.368E-02    0.772E-03
DAV:   6    -0.132563606525E+03    0.86240E-05   -0.17160E-05  4574   0.390E-02
  39 F= -.13256361E+03 E0= -.13255992E+03  d E =-.575639E-03
       N       E                     dE             d eps       ncg     rms          rms(c)
DAV:   1    -0.132562714913E+03    0.90024E-03   -0.72176E-01  6310   0.379E+00    0.132E-01
DAV:   2    -0.132564103126E+03   -0.13882E-02   -0.19370E-02  6840   0.571E-01    0.822E-02
DAV:   3    -0.132563791293E+03    0.31183E-03   -0.93970E-04  7058   0.111E-01    0.508E-02
DAV:   4    -0.132563739843E+03    0.51450E-04   -0.13941E-04  6842   0.551E-02    0.368E-02
DAV:   5    -0.132563673271E+03    0.66572E-04   -0.53184E-05  6634   0.706E-02    0.157E-02
DAV:   6    -0.132563635180E+03    0.38091E-04   -0.61946E-05  6472   0.799E-02    0.622E-03
DAV:   7    -0.132563609936E+03    0.25244E-04   -0.43881E-05  5802   0.720E-02    0.685E-03
DAV:   8    -0.132563603837E+03    0.60986E-05   -0.41829E-05  5650   0.317E-02
  40 F= -.13256360E+03 E0= -.13256021E+03  d E =-.572951E-03
       N       E                     dE             d eps       ncg     rms          rms(c)
DAV:   1    -0.132563527739E+03    0.82197E-04   -0.11446E-01  6250   0.151E+00    0.539E-02
DAV:   2    -0.132563752710E+03   -0.22497E-03   -0.30817E-03  6806   0.227E-01    0.324E-02
DAV:   3    -0.132563705383E+03    0.47327E-04   -0.13936E-04  6212   0.404E-02    0.204E-02
DAV:   4    -0.132563696764E+03    0.86196E-05   -0.23637E-05  4834   0.232E-02    0.139E-02
DAV:   5    -0.132563687560E+03    0.92038E-05   -0.18139E-05  4408   0.281E-02    0.491E-03
DAV:   6    -0.132563684865E+03    0.26947E-05   -0.84601E-06  3718   0.192E-02
  41 F= -.13256368E+03 E0= -.13256016E+03  d E =-.653979E-03
       N       E                     dE             d eps       ncg     rms          rms(c)
DAV:   1    -0.132563899937E+03   -0.21238E-03   -0.47395E-02  6504   0.967E-01    0.322E-02
DAV:   2    -0.132563993214E+03   -0.93277E-04   -0.13179E-03  6942   0.148E-01    0.231E-02
DAV:   3    -0.132563968897E+03    0.24317E-04   -0.59430E-05  5722   0.304E-02    0.151E-02
DAV:   4    -0.132563964140E+03    0.47563E-05   -0.91109E-06  4000   0.134E-02    0.115E-02
DAV:   5    -0.132563950773E+03    0.13367E-04   -0.80536E-06  4332   0.247E-02    0.531E-03
DAV:   6    -0.132563941488E+03    0.92848E-05   -0.11009E-05  4428   0.271E-02
  42 F= -.13256394E+03 E0= -.13256047E+03  d E =-.256623E-03
       N       E                     dE             d eps       ncg     rms          rms(c)
DAV:   1    -0.132563913351E+03    0.37422E-04   -0.15095E-01  6504   0.173E+00    0.588E-02
DAV:   2    -0.132564219287E+03   -0.30594E-03   -0.42266E-03  6926   0.265E-01    0.397E-02
DAV:   3    -0.132564150359E+03    0.68928E-04   -0.17871E-04  6970   0.532E-02    0.258E-02
DAV:   4    -0.132564136278E+03    0.14081E-04   -0.27249E-05  4998   0.227E-02    0.193E-02
DAV:   5    -0.132564102971E+03    0.33307E-04   -0.20675E-05  5626   0.363E-02    0.924E-03
DAV:   6    -0.132564078218E+03    0.24752E-04   -0.26322E-05  5880   0.426E-02    0.469E-03
DAV:   7    -0.132564059470E+03    0.18748E-04   -0.12174E-05  4686   0.390E-02    0.437E-03
DAV:   8    -0.132564038252E+03    0.21218E-04   -0.10417E-05  4784   0.537E-02    0.359E-03
DAV:   9    -0.132564010676E+03    0.27575E-04   -0.34020E-05  6264   0.107E-01    0.387E-03
DAV:  10    -0.132564007160E+03    0.35168E-05   -0.50327E-05  6268   0.579E-02
  43 F= -.13256401E+03 E0= -.13256063E+03  d E =-.322294E-03
       N       E                     dE             d eps       ncg     rms          rms(c)
DAV:   1    -0.132564013991E+03   -0.33148E-05   -0.74431E-03  6780   0.383E-01    0.142E-02
DAV:   2    -0.132564029913E+03   -0.15922E-04   -0.23056E-04  6916   0.634E-02    0.999E-03
DAV:   3    -0.132564026175E+03    0.37381E-05   -0.10021E-05  4262   0.140E-02    0.676E-03
DAV:   4    -0.132564025238E+03    0.93663E-06   -0.22668E-06  3602   0.670E-03    0.468E-03
DAV:   5    -0.132564023526E+03    0.17125E-05   -0.22265E-06  3778   0.944E-03    0.199E-03
DAV:   6    -0.132564022970E+03    0.55620E-06   -0.13233E-06  3580   0.803E-03
  44 F= -.13256402E+03 E0= -.13256062E+03  d E =-.338105E-03
       N       E                     dE             d eps       ncg     rms          rms(c)
DAV:   1    -0.132564185564E+03   -0.16204E-03   -0.50882E-03  6272   0.316E-01    0.152E-02
DAV:   2    -0.132564189830E+03   -0.42659E-05   -0.19260E-04  7100   0.655E-02    0.106E-02
DAV:   3    -0.132564184317E+03    0.55127E-05   -0.25234E-05  4736   0.227E-02    0.813E-03
DAV:   4    -0.132564182595E+03    0.17219E-05   -0.32631E-06  3660   0.944E-03    0.619E-03
DAV:   5    -0.132564177818E+03    0.47773E-05   -0.49632E-06  3922   0.179E-02    0.321E-03
DAV:   6    -0.132564175365E+03    0.24528E-05   -0.32109E-06  3742   0.172E-02
  45 F= -.13256418E+03 E0= -.13256080E+03  d E =-.152396E-03
       N       E                     dE             d eps       ncg     rms          rms(c)
DAV:   1    -0.132564252802E+03   -0.74984E-04   -0.10502E-02  6270   0.458E-01    0.217E-02
DAV:   2    -0.132564261702E+03   -0.89005E-05   -0.44571E-04  7120   0.101E-01    0.168E-02
DAV:   3    -0.132564248539E+03    0.13163E-04   -0.53101E-05  6402   0.328E-02    0.137E-02
DAV:   4    -0.132564243684E+03    0.48550E-05   -0.45855E-06  3840   0.112E-02    0.109E-02
DAV:   5    -0.132564224304E+03    0.19380E-04   -0.20340E-05  4968   0.379E-02    0.606E-03
DAV:   6    -0.132564216228E+03    0.80765E-05   -0.84777E-06  3944   0.286E-02
  46 F= -.13256422E+03 E0= -.13256089E+03  d E =-.193258E-03
       N       E                     dE             d eps       ncg     rms          rms(c)
DAV:   1    -0.132564338754E+03   -0.11445E-03   -0.84739E-03  6604   0.414E-01    0.151E-02
DAV:   2    -0.132564354425E+03   -0.15671E-04   -0.32234E-04  6982   0.786E-02    0.150E-02
DAV:   3    -0.132564347010E+03    0.74150E-05   -0.12319E-05  4028   0.170E-02    0.120E-02
DAV:   4    -0.132564335191E+03    0.11820E-04   -0.11904E-05  4112   0.196E-02    0.594E-03
DAV:   5    -0.132564321143E+03    0.14047E-04   -0.94412E-06  4086   0.270E-02    0.719E-03
DAV:   6    -0.132564309012E+03    0.12131E-04   -0.53467E-06  4016   0.347E-02    0.429E-03
DAV:   7    -0.132564277075E+03    0.31937E-04   -0.25647E-05  5802   0.102E-01    0.569E-03
DAV:   8    -0.132564258509E+03    0.18566E-04   -0.49718E-05  6650   0.859E-02    0.532E-03
DAV:   9    -0.132564253398E+03    0.51113E-05   -0.31111E-05  5822   0.611E-02
  47 F= -.13256425E+03 E0= -.13256097E+03  d E =-.371701E-04
       N       E                     dE             d eps       ncg     rms          rms(c)
DAV:   1    -0.132564259740E+03   -0.12314E-05   -0.10502E-03  6616   0.149E-01    0.748E-03
DAV:   2    -0.132564264570E+03   -0.48299E-05   -0.66116E-05  6600   0.338E-02    0.727E-03
DAV:   3    -0.132564263602E+03    0.96808E-06   -0.26370E-06  3632   0.816E-03    0.509E-03
DAV:   4    -0.132564263165E+03    0.43703E-06   -0.21436E-06  3632   0.640E-03    0.216E-03
DAV:   5    -0.132564262857E+03    0.30848E-06   -0.63970E-07  3578   0.395E-03    0.127E-03
DAV:   6    -0.132564262537E+03    0.31982E-06   -0.10899E-07  3560   0.421E-03
  48 F= -.13256426E+03 E0= -.13256099E+03  d E =-.463092E-04
       N       E                     dE             d eps       ncg     rms          rms(c)
DAV:   1    -0.132564384172E+03   -0.12132E-03   -0.13372E-02  6540   0.507E-01    0.161E-02
DAV:   2    -0.132564410650E+03   -0.26478E-04   -0.34363E-04  7002   0.774E-02    0.116E-02
DAV:   3    -0.132564406662E+03    0.39879E-05   -0.79599E-06  4026   0.171E-02    0.860E-03
DAV:   4    -0.132564404419E+03    0.22430E-05   -0.51388E-06  3840   0.143E-02    0.491E-03
DAV:   5    -0.132564402129E+03    0.22900E-05   -0.36503E-06  3960   0.165E-02    0.222E-03
DAV:   6    -0.132564401875E+03    0.25361E-06   -0.37703E-06  3464   0.108E-02
  49 F= -.13256440E+03 E0= -.13256115E+03  d E =-.139338E-03
       N       E                     dE             d eps       ncg     rms          rms(c)
DAV:   1    -0.132564440953E+03   -0.38824E-04   -0.46403E-02  6480   0.945E-01    0.296E-02
DAV:   2    -0.132564526969E+03   -0.86016E-04   -0.11770E-03  7002   0.146E-01    0.220E-02
DAV:   3    -0.132564511773E+03    0.15196E-04   -0.35607E-05  6140   0.349E-02    0.165E-02
DAV:   4    -0.132564502381E+03    0.93917E-05   -0.12974E-05  4176   0.244E-02    0.103E-02
DAV:   5    -0.132564488748E+03    0.13634E-04   -0.14111E-05  4608   0.388E-02    0.486E-03
DAV:   6    -0.132564486154E+03    0.25940E-05   -0.16505E-05  4080   0.245E-02
  50 F= -.13256449E+03 E0= -.13256128E+03  d E =-.223617E-03
       N       E                     dE             d eps       ncg     rms          rms(c)
DAV:   1    -0.132564624171E+03   -0.13542E-03   -0.13953E-02  6474   0.516E-01    0.177E-02
DAV:   2    -0.132564644558E+03   -0.20386E-04   -0.35862E-04  6748   0.823E-02    0.118E-02
DAV:   3    -0.132564635515E+03    0.90428E-05   -0.15185E-05  4404   0.242E-02    0.833E-03
DAV:   4    -0.132564630438E+03    0.50767E-05   -0.41777E-06  3686   0.151E-02    0.618E-03
DAV:   5    -0.132564613934E+03    0.16504E-04   -0.46917E-06  3992   0.396E-02    0.348E-03
DAV:   6    -0.132564601948E+03    0.11986E-04   -0.11176E-05  4456   0.370E-02    0.392E-03
DAV:   7    -0.132564596146E+03    0.58018E-05   -0.29666E-05  5338   0.438E-02
  51 F= -.13256460E+03 E0= -.13256142E+03  d E =-.109992E-03
       N       E                     dE             d eps       ncg     rms          rms(c)
DAV:   1    -0.132564554418E+03    0.47529E-04   -0.32085E-02  6744   0.797E-01    0.264E-02
DAV:   2    -0.132564629700E+03   -0.75281E-04   -0.10450E-03  6876   0.135E-01    0.246E-02
DAV:   3    -0.132564608515E+03    0.21185E-04   -0.30982E-05  5376   0.255E-02    0.155E-02
DAV:   4    -0.132564592386E+03    0.16129E-04   -0.15107E-05  3872   0.216E-02    0.818E-03
DAV:   5    -0.132564573661E+03    0.18726E-04   -0.90968E-06  4228   0.345E-02    0.465E-03
DAV:   6    -0.132564543143E+03    0.30517E-04   -0.14575E-05  4862   0.711E-02    0.421E-03
DAV:   7    -0.132564524780E+03    0.18363E-04   -0.27226E-05  5614   0.518E-02    0.472E-03
DAV:   8    -0.132564497774E+03    0.27006E-04   -0.11725E-05  4928   0.779E-02    0.575E-03
DAV:   9    -0.132564473186E+03    0.24589E-04   -0.51812E-05  6808   0.134E-01    0.541E-03
DAV:  10    -0.132564477709E+03   -0.45232E-05   -0.77373E-05  5888   0.375E-02
  52 F= -.13256448E+03 E0= -.13256132E+03  d E =0.844499E-05
       N       E                     dE             d eps       ncg     rms          rms(c)
DAV:   1    -0.132564556042E+03   -0.82856E-04   -0.99328E-03  6672   0.435E-01    0.168E-02
DAV:   2    -0.132564575507E+03   -0.19466E-04   -0.26399E-04  6758   0.683E-02    0.936E-03
DAV:   3    -0.132564572101E+03    0.34062E-05   -0.93941E-06  4082   0.164E-02    0.624E-03
DAV:   4    -0.132564570389E+03    0.17118E-05   -0.27884E-06  3620   0.962E-03    0.400E-03
DAV:   5    -0.132564567137E+03    0.32526E-05   -0.18784E-06  3792   0.148E-02    0.186E-03
DAV:   6    -0.132564565402E+03    0.17344E-05   -0.18968E-06  3648   0.121E-02
  53 F= -.13256457E+03 E0= -.13256139E+03  d E =-.792484E-04
       N       E                     dE             d eps       ncg     rms          rms(c)
DAV:   1    -0.132564577129E+03   -0.99922E-05   -0.11586E-03  6828   0.155E-01    0.528E-03
DAV:   2    -0.132564579583E+03   -0.24538E-05   -0.48453E-05  6220   0.299E-02    0.677E-03
DAV:   3    -0.132564577987E+03    0.15953E-05   -0.22170E-06  3626   0.731E-03    0.437E-03
DAV:   4    -0.132564575787E+03    0.22007E-05   -0.19742E-06  3656   0.893E-03    0.205E-03
DAV:   5    -0.132564574128E+03    0.16584E-05   -0.86909E-07  3666   0.104E-02    0.153E-03
DAV:   6    -0.132564568880E+03    0.52480E-05   -0.16994E-06  3996   0.348E-02
  54 F= -.13256457E+03 E0= -.13256138E+03  d E =-.827263E-04
       N       E                     dE             d eps       ncg     rms          rms(c)
DAV:   1    -0.132564570835E+03    0.32927E-05   -0.51786E-04  6628   0.104E-01    0.415E-03
DAV:   2    -0.132564571744E+03   -0.90819E-06   -0.21941E-05  4758   0.206E-02    0.316E-03
DAV:   3    -0.132564570935E+03    0.80861E-06   -0.13841E-06  3626   0.549E-03    0.199E-03
DAV:   4    -0.132564570557E+03    0.37800E-06   -0.25254E-07  3584   0.281E-03    0.153E-03
DAV:   5    -0.132564569185E+03    0.13716E-05   -0.20099E-07  3664   0.904E-03    0.108E-03
DAV:   6    -0.132564564795E+03    0.43903E-05   -0.20936E-06  4066   0.357E-02
  55 F= -.13256456E+03 E0= -.13256138E+03  d E =-.786413E-04
       N       E                     dE             d eps       ncg     rms          rms(c)
DAV:   1    -0.132564687174E+03   -0.11799E-03   -0.17539E-03  6452   0.194E-01    0.121E-02
DAV:   2    -0.132564694988E+03   -0.78142E-05   -0.16415E-04  6946   0.575E-02    0.118E-02
DAV:   3    -0.132564691898E+03    0.30898E-05   -0.10273E-05  3914   0.151E-02    0.863E-03
DAV:   4    -0.132564691065E+03    0.83366E-06   -0.21003E-06  3560   0.642E-03    0.642E-03
DAV:   5    -0.132564688429E+03    0.26352E-05   -0.70327E-06  3948   0.129E-02    0.249E-03
DAV:   6    -0.132564687976E+03    0.45363E-06   -0.17158E-06  3446   0.822E-03
  56 F= -.13256469E+03 E0= -.13256152E+03  d E =-.123181E-03
